#Bead    Energy (eV)
0     0.6505828184784609
