#Bead    Energy (eV)
0     0.5909187364413652
1     0.5925117082160818
2     0.5956257675656544
3     0.600117170887837
4     0.6057714202942139
5     0.6123073361175614
6     0.6193863477946148
7     0.6266289065414814
8     0.633638709290126
9     0.6400334223238303
10     0.6454782495111298
11     0.6497168045027464
12     0.6525932201246115
13     0.6540608031384583
14     0.6541755875153339
15     0.6530768168467143
16     0.6509593222246323
17     0.6480439534185575
18     0.644551484633725
19     0.6406834451341912
20     0.6366109162450821
21     0.6324704505376302
22     0.6283652708185921
23     0.6243696393817983
24     0.6205345749520013
25     0.616893625692369
26     0.6134679486534116
27     0.6102703780341281
28     0.6073084518364846
29     0.6045865239587959
30     0.6021071512313592
31     0.5998719483156144
32     0.5978820767544553
33     0.5961384974775052
34     0.5946420800191555
35     0.5933936315693743
36     0.5923938861000464
37     0.5916434776600042
38     0.5911429112441983
39     0.5908925380326207
