#Bead    Energy (eV)
0     0.6444480598878105
1     0.6444807214359295
2     0.6445783816508036
3     0.6447400236339479
4     0.6449638136010644
5     0.6452469141761308
6     0.6455852639328461
7     0.6459733585079044
8     0.6464040713715444
9     0.6468685507121861
10     0.6473562229919009
11     0.6478549241495043
12     0.6483511671764202
13     0.6488305411821408
14     0.6492782235801919
15     0.6496795751328737
16     0.6500207785847085
17     0.6502894764461419
18     0.6504753626659789
19     0.6505706864544324
20     0.6505706338909607
21     0.6504735632587497
22     0.65028108208796
23     0.6499979663378482
24     0.6496319337269637
25     0.6491932928558887
26     0.6486944966944868
27     0.648149632831316
28     0.6475738835861183
29     0.6469829869712992
30     0.6463927251073185
31     0.645818460754084
32     0.6452747358722476
33     0.6447749393025503
34     0.6443310443791933
35     0.6439534120684866
36     0.6436506513823975
37     0.6434295265318153
38     0.6432948995803468
39     0.6432496981282528
