6
# CELL(abcABC):  200.00000   200.00000   200.00000    90.00000    90.00000    90.00000  Step:           0  Bead:       0 x_centroid{angstrom}  cell{atomic_unit}
       H  2.23738e+00  1.48469e+00  1.25544e+00
       C  6.45117e-01  7.89716e-01  6.62042e-01
       H  1.30858e+00  1.61593e-01  6.94713e-02
       H -1.37407e-02  1.34855e+00 -8.78892e-04
       H  4.84318e-02  1.64198e-01  1.32427e+00
       H  5.82817e+00  2.17911e+00  1.85243e+00
6
# CELL(abcABC):  200.00000   200.00000   200.00000    90.00000    90.00000    90.00000  Step:           1  Bead:       0 x_centroid{angstrom}  cell{atomic_unit}
       H  1.79711e+00  1.38789e+00  1.16960e+00
       C  9.30566e-01  7.92965e-01  6.77254e-01
       H  1.30496e+00  9.16453e-02  4.21562e-03
       H  6.72142e-02  1.48876e+00  7.64499e-03
       H  1.25729e-01  1.87440e-01  1.45159e+00
       H  5.82836e+00  2.17915e+00  1.85247e+00
6
# CELL(abcABC):  200.00000   200.00000   200.00000    90.00000    90.00000    90.00000  Step:           2  Bead:       0 x_centroid{angstrom}  cell{atomic_unit}
       H  1.75012e+00  1.36701e+00  1.15387e+00
       C  8.24033e-01  8.37660e-01  7.12573e-01
       H  1.32454e+00  6.12349e-02 -2.28597e-02
       H  1.36444e-01  1.45285e+00  5.53214e-02
       H  1.90411e-01  2.29938e-01  1.41140e+00
       H  5.82838e+00  2.17916e+00  1.85247e+00
6
# CELL(abcABC):  200.00000   200.00000   200.00000    90.00000    90.00000    90.00000  Step:           3  Bead:       0 x_centroid{angstrom}  cell{atomic_unit}
       H  1.69927e+00  1.35435e+00  1.14460e+00
       C  8.52167e-01  8.02691e-01  6.69554e-01
       H  1.29869e+00  9.45114e-02  1.02116e-02
       H  1.63001e-01  1.44717e+00  7.97900e-02
       H  2.12392e-01  2.49969e-01  1.40614e+00
       H  5.82841e+00  2.17917e+00  1.85248e+00
6
# CELL(abcABC):  200.00000   200.00000   200.00000    90.00000    90.00000    90.00000  Step:           4  Bead:       0 x_centroid{angstrom}  cell{atomic_unit}
       H  1.68087e+00  1.35081e+00  1.14128e+00
       C  8.38673e-01  8.10565e-01  6.82685e-01
       H  1.30343e+00  8.24207e-02 -7.03200e-04
       H  1.75751e-01  1.44507e+00  8.77242e-02
       H  2.26784e-01  2.59818e-01  1.39931e+00
       H  5.82843e+00  2.17917e+00  1.85248e+00
6
# CELL(abcABC):  200.00000   200.00000   200.00000    90.00000    90.00000    90.00000  Step:           5  Bead:       0 x_centroid{angstrom}  cell{atomic_unit}
       H  1.66462e+00  1.35181e+00  1.14248e+00
       C  8.47549e-01  7.98039e-01  6.68586e-01
       H  1.29741e+00  8.53538e-02  2.99086e-03
       H  1.82902e-01  1.44973e+00  9.24426e-02
       H  2.33002e-01  2.63737e-01  1.40378e+00
       H  5.82846e+00  2.17918e+00  1.85249e+00
6
# CELL(abcABC):  200.00000   200.00000   200.00000    90.00000    90.00000    90.00000  Step:           6  Bead:       0 x_centroid{angstrom}  cell{atomic_unit}
       H  1.65731e+00  1.35279e+00  1.14327e+00
       C  8.41214e-01  8.00833e-01  6.73058e-01
       H  1.30010e+00  7.71413e-02 -4.27270e-03
       H  1.88059e-01  1.45105e+00  9.48981e-02
       H  2.38778e-01  2.66850e-01  1.40332e+00
       H  5.82848e+00  2.17919e+00  1.85249e+00
6
# CELL(abcABC):  200.00000   200.00000   200.00000    90.00000    90.00000    90.00000  Step:           7  Bead:       0 x_centroid{angstrom}  cell{atomic_unit}
       H  1.65004e+00  1.35516e+00  1.14545e+00
       C  8.46534e-01  7.94089e-01  6.65502e-01
       H  1.29725e+00  7.66218e-02 -4.12947e-03
       H  1.90615e-01  1.45539e+00  9.57912e-02
       H  2.40990e-01  2.67404e-01  1.40766e+00
       H  5.82851e+00  2.17919e+00  1.85250e+00
6
# CELL(abcABC):  200.00000   200.00000   200.00000    90.00000    90.00000    90.00000  Step:           8  Bead:       0 x_centroid{angstrom}  cell{atomic_unit}
       H  1.64621e+00  1.35618e+00  1.14629e+00
       C  8.42710e-01  7.95709e-01  6.68014e-01
       H  1.29856e+00  7.16650e-02 -8.47077e-03
       H  1.93609e-01  1.45624e+00  9.69187e-02
       H  2.44324e-01  2.68860e-01  1.40752e+00
       H  5.82853e+00  2.17920e+00  1.85250e+00
6
# CELL(abcABC):  200.00000   200.00000   200.00000    90.00000    90.00000    90.00000  Step:           9  Bead:       0 x_centroid{angstrom}  cell{atomic_unit}
       H  1.64213e+00  1.35779e+00  1.14773e+00
       C  8.45976e-01  7.91971e-01  6.63806e-01
       H  1.29663e+00  7.11908e-02 -8.50672e-03
       H  1.95058e-01  1.45886e+00  9.71006e-02
       H  2.45596e-01  2.68838e-01  1.41013e+00
       H  5.82855e+00  2.17920e+00  1.85251e+00
6
# CELL(abcABC):  200.00000   200.00000   200.00000    90.00000    90.00000    90.00000  Step:          10  Bead:       0 x_centroid{angstrom}  cell{atomic_unit}
       H  1.63995e+00  1.35852e+00  1.14832e+00
       C  8.43651e-01  7.92965e-01  6.65299e-01
       H  1.29718e+00  6.82936e-02 -1.10176e-02
       H  1.96929e-01  1.45932e+00  9.76528e-02
       H  2.47655e-01  2.69557e-01  1.41001e+00
       H  5.82857e+00  2.17921e+00  1.85252e+00
6
# CELL(abcABC):  200.00000   200.00000   200.00000    90.00000    90.00000    90.00000  Step:          11  Bead:       0 x_centroid{angstrom}  cell{atomic_unit}
       H  1.63756e+00  1.35954e+00  1.14922e+00
       C  8.45638e-01  7.90859e-01  6.62912e-01
       H  1.29584e+00  6.80153e-02 -1.10156e-02
       H  1.97842e-01  1.46085e+00  9.76011e-02
       H  2.48469e-01  2.69374e-01  1.41153e+00
       H  5.82860e+00  2.17922e+00  1.85252e+00
6
# CELL(abcABC):  200.00000   200.00000   200.00000    90.00000    90.00000    90.00000  Step:          12  Bead:       0 x_centroid{angstrom}  cell{atomic_unit}
       H  1.63629e+00  1.36003e+00  1.14961e+00
       C  8.44216e-01  7.91486e-01  6.63827e-01
       H  1.29604e+00  6.63117e-02 -1.24779e-02
       H  1.99018e-01  1.46110e+00  9.78547e-02
       H  2.49752e-01  2.69715e-01  1.41143e+00
       H  5.82862e+00  2.17922e+00  1.85253e+00
6
# CELL(abcABC):  200.00000   200.00000   200.00000    90.00000    90.00000    90.00000  Step:          13  Bead:       0 x_centroid{angstrom}  cell{atomic_unit}
       H  1.63488e+00  1.36067e+00  1.15017e+00
       C  8.45424e-01  7.90281e-01  6.62452e-01
       H  1.29511e+00  6.61632e-02 -1.24487e-02
       H  1.99602e-01  1.46201e+00  9.77273e-02
       H  2.50278e-01  2.69503e-01  1.41234e+00
       H  5.82864e+00  2.17923e+00  1.85253e+00
6
# CELL(abcABC):  200.00000   200.00000   200.00000    90.00000    90.00000    90.00000  Step:          14  Bead:       0 x_centroid{angstrom}  cell{atomic_unit}
       H  1.63414e+00  1.36099e+00  1.15043e+00
       C  8.44547e-01  7.90685e-01  6.63025e-01
       H  1.29517e+00  6.51508e-02 -1.33103e-02
       H  2.00341e-01  1.46214e+00  9.78314e-02
       H  2.51080e-01  2.69654e-01  1.41226e+00
       H  5.82866e+00  2.17923e+00  1.85254e+00
6
# CELL(abcABC):  200.00000   200.00000   200.00000    90.00000    90.00000    90.00000  Step:          15  Bead:       0 x_centroid{angstrom}  cell{atomic_unit}
       H  1.63329e+00  1.36140e+00  1.15078e+00
       C  8.45284e-01  7.89985e-01  6.62221e-01
       H  1.29454e+00  6.50771e-02 -1.32717e-02
       H  2.00715e-01  1.46269e+00  9.76966e-02
       H  2.51420e-01  2.69463e-01  1.41281e+00
       H  5.82869e+00  2.17924e+00  1.85254e+00
6
# CELL(abcABC):  200.00000   200.00000   200.00000    90.00000    90.00000    90.00000  Step:          16  Bead:       0 x_centroid{angstrom}  cell{atomic_unit}
       H  1.63286e+00  1.36161e+00  1.15094e+00
       C  8.44737e-01  7.90248e-01  6.62586e-01
       H  1.29453e+00  6.44691e-02 -1.37853e-02
       H  2.01180e-01  1.46276e+00  9.77305e-02
       H  2.51922e-01  2.69523e-01  1.41275e+00
       H  5.82871e+00  2.17925e+00  1.85255e+00
6
# CELL(abcABC):  200.00000   200.00000   200.00000    90.00000    90.00000    90.00000  Step:          17  Bead:       0 x_centroid{angstrom}  cell{atomic_unit}
       H  1.63235e+00  1.36187e+00  1.15116e+00
       C  8.45189e-01  7.89836e-01  6.62109e-01
       H  1.29410e+00  6.44356e-02 -1.37478e-02
       H  2.01419e-01  1.46309e+00  9.76145e-02
       H  2.52140e-01  2.69371e-01  1.41308e+00
       H  5.82874e+00  2.17925e+00  1.85255e+00
6
# CELL(abcABC):  200.00000   200.00000   200.00000    90.00000    90.00000    90.00000  Step:          18  Bead:       0 x_centroid{angstrom}  cell{atomic_unit}
       H  1.63209e+00  1.36201e+00  1.15127e+00
       C  8.44845e-01  7.90008e-01  6.62343e-01
       H  1.29408e+00  6.40668e-02 -1.40574e-02
       H  2.01712e-01  1.46313e+00  9.76182e-02
       H  2.52455e-01  2.69389e-01  1.41305e+00
       H  5.82876e+00  2.17926e+00  1.85256e+00
6
# CELL(abcABC):  200.00000   200.00000   200.00000    90.00000    90.00000    90.00000  Step:          19  Bead:       0 x_centroid{angstrom}  cell{atomic_unit}
       H  1.63178e+00  1.36217e+00  1.15141e+00
       C  8.45124e-01  7.89763e-01  6.62057e-01
       H  1.29379e+00  6.40537e-02 -1.40258e-02
       H  2.01863e-01  1.46333e+00  9.75274e-02
       H  2.52593e-01  2.69274e-01  1.41325e+00
       H  5.82878e+00  2.17927e+00  1.85256e+00
6
# CELL(abcABC):  200.00000   200.00000   200.00000    90.00000    90.00000    90.00000  Step:          20  Bead:       0 x_centroid{angstrom}  cell{atomic_unit}
       H  1.63162e+00  1.36226e+00  1.15147e+00
       C  8.44905e-01  7.89875e-01  6.62208e-01
       H  1.29377e+00  6.38278e-02 -1.42144e-02
       H  2.02047e-01  1.46335e+00  9.75200e-02
       H  2.52791e-01  2.69275e-01  1.41322e+00
       H  5.82880e+00  2.17927e+00  1.85257e+00
6
# CELL(abcABC):  200.00000   200.00000   200.00000    90.00000    90.00000    90.00000  Step:          21  Bead:       0 x_centroid{angstrom}  cell{atomic_unit}
       H  1.63144e+00  1.36236e+00  1.15156e+00
       C  8.45077e-01  7.89727e-01  6.62034e-01
       H  1.29357e+00  6.38244e-02 -1.41896e-02
       H  2.02142e-01  1.46347e+00  9.74527e-02
       H  2.52877e-01  2.69192e-01  1.41334e+00
       H  5.82883e+00  2.17928e+00  1.85257e+00
6
# CELL(abcABC):  200.00000   200.00000   200.00000    90.00000    90.00000    90.00000  Step:          22  Bead:       0 x_centroid{angstrom}  cell{atomic_unit}
       H  1.63134e+00  1.36242e+00  1.15160e+00
       C  8.44937e-01  7.89801e-01  6.62132e-01
       H  1.29355e+00  6.36847e-02 -1.43057e-02
       H  2.02257e-01  1.46348e+00  9.74425e-02
       H  2.53002e-01  2.69187e-01  1.41333e+00
       H  5.82885e+00  2.17928e+00  1.85258e+00
6
# CELL(abcABC):  200.00000   200.00000   200.00000    90.00000    90.00000    90.00000  Step:          23  Bead:       0 x_centroid{angstrom}  cell{atomic_unit}
       H  1.63122e+00  1.36249e+00  1.15166e+00
       C  8.45044e-01  7.89710e-01  6.62024e-01
       H  1.29342e+00  6.36854e-02 -1.42872e-02
       H  2.02315e-01  1.46356e+00  9.73942e-02
       H  2.53055e-01  2.69128e-01  1.41340e+00
       H  5.82888e+00  2.17929e+00  1.85258e+00
6
# CELL(abcABC):  200.00000   200.00000   200.00000    90.00000    90.00000    90.00000  Step:          24  Bead:       0 x_centroid{angstrom}  cell{atomic_unit}
       H  1.63116e+00  1.36252e+00  1.15168e+00
       C  8.44953e-01  7.89759e-01  6.62088e-01
       H  1.29341e+00  6.35981e-02 -1.43595e-02
       H  2.02387e-01  1.46356e+00  9.73846e-02
       H  2.53132e-01  2.69121e-01  1.41339e+00
       H  5.82890e+00  2.17930e+00  1.85259e+00
6
# CELL(abcABC):  200.00000   200.00000   200.00000    90.00000    90.00000    90.00000  Step:          25  Bead:       0 x_centroid{angstrom}  cell{atomic_unit}
       H  1.63109e+00  1.36256e+00  1.15172e+00
       C  8.45019e-01  7.89702e-01  6.62021e-01
       H  1.29332e+00  6.36003e-02 -1.43460e-02
       H  2.02423e-01  1.46361e+00  9.73505e-02
       H  2.53164e-01  2.69080e-01  1.41344e+00
       H  5.82892e+00  2.17930e+00  1.85259e+00
6
# CELL(abcABC):  200.00000   200.00000   200.00000    90.00000    90.00000    90.00000  Step:          26  Bead:       0 x_centroid{angstrom}  cell{atomic_unit}
       H  1.63105e+00  1.36258e+00  1.15173e+00
       C  8.44958e-01  7.89734e-01  6.62063e-01
       H  1.29331e+00  6.35448e-02 -1.43919e-02
       H  2.02467e-01  1.46361e+00  9.73427e-02
       H  2.53212e-01  2.69074e-01  1.41343e+00
       H  5.82894e+00  2.17931e+00  1.85260e+00
6
# CELL(abcABC):  200.00000   200.00000   200.00000    90.00000    90.00000    90.00000  Step:          27  Bead:       0 x_centroid{angstrom}  cell{atomic_unit}
       H  1.63100e+00  1.36261e+00  1.15176e+00
       C  8.44999e-01  7.89697e-01  6.62019e-01
       H  1.29325e+00  6.35476e-02 -1.43820e-02
       H  2.02487e-01  1.46364e+00  9.73187e-02
       H  2.53230e-01  2.69046e-01  1.41346e+00
       H  5.82897e+00  2.17931e+00  1.85261e+00
6
# CELL(abcABC):  200.00000   200.00000   200.00000    90.00000    90.00000    90.00000  Step:          28  Bead:       0 x_centroid{angstrom}  cell{atomic_unit}
       H  1.63098e+00  1.36263e+00  1.15177e+00
       C  8.44957e-01  7.89719e-01  6.62047e-01
       H  1.29324e+00  6.35114e-02 -1.44119e-02
       H  2.02515e-01  1.46364e+00  9.73128e-02
       H  2.53260e-01  2.69041e-01  1.41345e+00
       H  5.82899e+00  2.17932e+00  1.85261e+00
6
# CELL(abcABC):  200.00000   200.00000   200.00000    90.00000    90.00000    90.00000  Step:          29  Bead:       0 x_centroid{angstrom}  cell{atomic_unit}
       H  1.63094e+00  1.36264e+00  1.15178e+00
       C  8.44984e-01  7.89694e-01  6.62018e-01
       H  1.29320e+00  6.35146e-02 -1.44042e-02
       H  2.02525e-01  1.46366e+00  9.72957e-02
       H  2.53269e-01  2.69020e-01  1.41347e+00
       H  5.82902e+00  2.17933e+00  1.85262e+00
6
# CELL(abcABC):  200.00000   200.00000   200.00000    90.00000    90.00000    90.00000  Step:          30  Bead:       0 x_centroid{angstrom}  cell{atomic_unit}
       H  1.63093e+00  1.36265e+00  1.15179e+00
       C  8.44952e-01  7.89710e-01  6.62038e-01
       H  1.29319e+00  6.34899e-02 -1.44249e-02
       H  2.02542e-01  1.46366e+00  9.72914e-02
       H  2.53287e-01  2.69017e-01  1.41346e+00
       H  5.82904e+00  2.17933e+00  1.85262e+00
6
# CELL(abcABC):  200.00000   200.00000   200.00000    90.00000    90.00000    90.00000  Step:          31  Bead:       0 x_centroid{angstrom}  cell{atomic_unit}
       H  1.63090e+00  1.36266e+00  1.15180e+00
       C  8.44971e-01  7.89691e-01  6.62016e-01
       H  1.29316e+00  6.34936e-02 -1.44182e-02
       H  2.02546e-01  1.46367e+00  9.72790e-02
       H  2.53290e-01  2.69002e-01  1.41347e+00
       H  5.82907e+00  2.17934e+00  1.85263e+00
6
# CELL(abcABC):  200.00000   200.00000   200.00000    90.00000    90.00000    90.00000  Step:          32  Bead:       0 x_centroid{angstrom}  cell{atomic_unit}
       H  1.63089e+00  1.36267e+00  1.15180e+00
       C  8.44945e-01  7.89704e-01  6.62032e-01
       H  1.29316e+00  6.34755e-02 -1.44336e-02
       H  2.02556e-01  1.46367e+00  9.72761e-02
       H  2.53301e-01  2.69000e-01  1.41347e+00
       H  5.82909e+00  2.17935e+00  1.85263e+00
