3
# # CELL(abcABC):   8.000    8.000    8.000    90.00000    90.00000    90.00000  Step:           0  Bead:       0 positions{angstrom}  cell{angstrom}
 O   0.54044984       -0.97485007       -0.21657970 
 H   1.54328720       -0.97927800       -0.26039502 
 H   0.18385954       -1.25804198       -1.07875142
 DBCSR| CPU Multiplication driver                                           XSMM
 DBCSR| Multrec recursion limit                                              512
 DBCSR| Multiplication stack size                                           1000
 DBCSR| Maximum elements for images                                    UNLIMITED
 DBCSR| Multiplicative factor virtual images                                   1
 DBCSR| Use multiplication densification                                       T
 DBCSR| Multiplication size stacks                                             3


  **** **** ******  **  PROGRAM STARTED AT               2020-06-17 15:43:45.241
 ***** ** ***  *** **   PROGRAM STARTED ON                  eszter-Surfbook-A13B
 **    ****   ******    PROGRAM STARTED BY                                eszter
 ***** **    ** ** **   PROGRAM PROCESS ID                                 18149
  **** **  *******  **  PROGRAM STARTED IN /home/eszter/I-PY/pimd-tutorial/exerc
                                           ises/day-1/ex-2

 CP2K| version string:                                          CP2K version 7.1
 CP2K| source code revision number:                                  git:e635599
 CP2K| cp2kflags: omp libint fftw3 libxc xsmm spglib                            
 CP2K| is freely available from                            https://www.cp2k.org/
 CP2K| Program compiled at                          Mon Dec 23 19:23:12 CET 2019
 CP2K| Program compiled on                                                pc9404
 CP2K| Program compiled for                                Linux-x86-64-gfortran
 CP2K| Data directory path                   /home/krack/github/mkrack/cp2k/data
 CP2K| Input file name                                                   cp2k.in

 GLOBAL| Force Environment number                                              1
 GLOBAL| Basis set file name                              ./basis/GTH_BASIS_SETS
 GLOBAL| Potential file name                              ./basis/GTH_POTENTIALS
 GLOBAL| MM Potential file name                                     MM_POTENTIAL
 GLOBAL| Coordinate file name                                      __STD_INPUT__
 GLOBAL| Method name                                                        CP2K
 GLOBAL| Project name                                                        H2O
 GLOBAL| Preferred FFT library                                             FFTW3
 GLOBAL| Preferred diagonalization lib.                                       SL
 GLOBAL| Run type                                                         DRIVER
 GLOBAL| All-to-all communication in single precision                          F
 GLOBAL| FFTs using library dependent lengths                                  F
 GLOBAL| Global print level                                                  LOW
 GLOBAL| MPI I/O enabled                                                       T
 GLOBAL| Total number of message passing processes                             1
 GLOBAL| Number of threads for this process                                    4
 GLOBAL| This output is from process                                           0
 GLOBAL| CPU model name           Intel(R) Pentium(R) Silver N5000 CPU @ 1.10GHz
 GLOBAL| CPUID                                                              1000
 GLOBAL| Compiled for CPUID                                                    0

 MEMORY| system memory details [Kb]
 MEMORY|                        rank 0           min           max       average
 MEMORY| MemTotal              3866156       3866156       3866156       3866156
 MEMORY| MemFree                322284        322284        322284        322284
 MEMORY| Buffers                 52624         52624         52624         52624
 MEMORY| Cached                1189360       1189360       1189360       1189360
 MEMORY| Slab                   123404        123404        123404        123404
 MEMORY| SReclaimable            53420         53420         53420         53420
 MEMORY| MemLikelyFree         1617688       1617688       1617688       1617688


 GENERATE|  Preliminary Number of Bonds generated:                             0
 GENERATE|  Achieved consistency in connectivity generation.

 *******************************************************************************
 *******************************************************************************
 **                                                                           **
 **     #####                         ##              ##                      **
 **    ##   ##            ##          ##              ##                      **
 **   ##     ##                       ##            ######                    **
 **   ##     ##  ##   ##  ##   #####  ##  ##   ####   ##    #####    #####    **
 **   ##     ##  ##   ##  ##  ##      ## ##   ##      ##   ##   ##  ##   ##   **
 **   ##  ## ##  ##   ##  ##  ##      ####     ###    ##   ######   ######    **
 **    ##  ###   ##   ##  ##  ##      ## ##      ##   ##   ##       ##        **
 **     #######   #####   ##   #####  ##  ##  ####    ##    #####   ##        **
 **           ##                                                    ##        **
 **                                                                           **
 **                                                ... make the atoms dance   **
 **                                                                           **
 **            Copyright (C) by CP2K developers group (2000 - 2019)           **
 **                                                                           **
 *******************************************************************************


 TOTAL NUMBERS AND MAXIMUM NUMBERS

  Total number of            - Atomic kinds:                                   2
                             - Atoms:                                          3
                             - Shell sets:                                     6
                             - Shells:                                        11
                             - Primitive Cartesian functions:                 15
                             - Cartesian basis functions:                     24
                             - Spherical basis functions:                     23

  Maximum angular momentum of- Orbital basis functions:                        2
                             - Local part of the GTH pseudopotential:          2
                             - Non-local part of the GTH pseudopotential:      0


 SCF PARAMETERS         Density guess:                                   RESTART
                        --------------------------------------------------------
                        max_scf:                                              20
                        max_scf_history:                                       0
                        max_diis:                                              4
                        --------------------------------------------------------
                        eps_scf:                                        5.00E-07
                        eps_scf_history:                                0.00E+00
                        eps_diis:                                       1.00E-01
                        eps_eigval:                                     1.00E-05
                        --------------------------------------------------------
                        level_shift [a.u.]:                                 0.00
                        --------------------------------------------------------
                        Outer loop SCF in use 
                        No variables optimised in outer loop
                        eps_scf                                         5.00E-07
                        max_scf                                               25
                        No outer loop optimization
                        step_size                                       5.00E-01
 @ i-PI DRIVER BEING LOADED
 @ INPUT DATA: localhost       20614 F
  @ DRIVER MODE: Message from server: STATUS
  @ DRIVER MODE: Message from server: STATUS
  @ DRIVER MODE: Message from server: POSDATA

 Number of electrons:                                                          8
 Number of occupied orbitals:                                                  4
 Number of molecular orbitals:                                                 4

 Number of orbital functions:                                                 23
 Number of independent orbital functions:                                     23

 Extrapolation method: initial_guess

 *** WARNING in qs_initial_guess.F:280 :: User requested to restart the    ***
 *** wavefunction from the file named: H2O-RESTART.wfn. This file does not ***
 *** exist. Please check the existence of the file or change properly the  ***
 *** value of the keyword WFN_RESTART_FILE_NAME. Calculation continues     ***
 *** using ATOMIC GUESS.                                                   ***



 SCF WAVEFUNCTION OPTIMIZATION

  ----------------------------------- OT ---------------------------------------
  Minimizer      : DIIS                : direct inversion
                                         in the iterative subspace
                                         using   7 DIIS vectors
                                         safer DIIS on
  Preconditioner : FULL_ALL            : diagonalization, state selective
  Precond_solver : DEFAULT
  stepsize       :    0.15000000                  energy_gap     :    0.08000000
  eps_taylor     :   0.10000E-15                  max_taylor     :             4
  ----------------------------------- OT ---------------------------------------

  Step     Update method      Time    Convergence         Total energy    Change
  ------------------------------------------------------------------------------
     1 OT DIIS     0.15E+00    0.9     0.42081348       -16.3049740033 -1.63E+01
     2 OT DIIS     0.15E+00    0.4     0.29794187       -16.7074445343 -4.02E-01
     3 OT DIIS     0.15E+00    0.4     0.09392572       -17.1531405650 -4.46E-01
     4 OT DIIS     0.15E+00    0.4     0.05401066       -17.1791918708 -2.61E-02
     5 OT DIIS     0.15E+00    0.4     0.02391774       -17.1887492878 -9.56E-03
     6 OT DIIS     0.15E+00    0.4     0.00828131       -17.1907603933 -2.01E-03
     7 OT DIIS     0.15E+00    0.4     0.00188191       -17.1911125788 -3.52E-04
     8 OT DIIS     0.15E+00    0.4     0.00090767       -17.1911348555 -2.23E-05
     9 OT DIIS     0.15E+00    0.4     0.00046020       -17.1911384065 -3.55E-06
    10 OT DIIS     0.15E+00    0.4     0.00017617       -17.1911392577 -8.51E-07
    11 OT DIIS     0.15E+00    0.4     0.00006164       -17.1911393558 -9.81E-08
    12 OT DIIS     0.15E+00    0.6     0.00002084       -17.1911393719 -1.61E-08
    13 OT DIIS     0.15E+00    0.4     0.00001249       -17.1911393745 -2.59E-09
    14 OT DIIS     0.15E+00    0.4     0.00000386       -17.1911393750 -4.94E-10
    15 OT DIIS     0.15E+00    0.4     0.00000162       -17.1911393750 -5.65E-11
    16 OT DIIS     0.15E+00    0.4     0.00000049       -17.1911393751 -1.19E-11

  *** SCF run converged in    16 steps ***


  Electronic density on regular grids:         -8.0000000042       -0.0000000042
  Core density on regular grids:                7.9999999990       -0.0000000010
  Total charge density on r-space grids:       -0.0000000053
  Total charge density g-space grids:          -0.0000000053

  Overlap energy of the core charge distribution:               0.00000002162955
  Self energy of the core charge distribution:                -44.54061621428737
  Core Hamiltonian energy:                                     12.91768402464571
  Hartree energy:                                              18.64083008130503
  Exchange-correlation energy:                                 -4.20903728834868

  Total energy:                                               -17.19113937505577

  outer SCF iter =    1 RMS gradient =   0.49E-06 energy =        -17.1911393751
  outer SCF loop converged in   1 iterations or   16 steps


 ENERGY| Total FORCE_EVAL ( QS ) energy (a.u.):              -17.191139375057219

  @ DRIVER MODE: Received positions 
  @ DRIVER MODE: Message from server: STATUS
  @ DRIVER MODE: Message from server: GETFORCE
  @ DRIVER MODE: Returning v,forces,stress 
  @ DRIVER MODE: Message from server: STATUS
  @ DRIVER MODE: Message from server: STATUS
  @ DRIVER MODE: Message from server: POSDATA

 Number of electrons:                                                          8
 Number of occupied orbitals:                                                  4
 Number of molecular orbitals:                                                 4

 Number of orbital functions:                                                 23
 Number of independent orbital functions:                                     23

 Extrapolation method: ASPC


 SCF WAVEFUNCTION OPTIMIZATION

  ----------------------------------- OT ---------------------------------------
  Minimizer      : DIIS                : direct inversion
                                         in the iterative subspace
                                         using   7 DIIS vectors
                                         safer DIIS on
  Preconditioner : FULL_ALL            : diagonalization, state selective
  Precond_solver : DEFAULT
  stepsize       :    0.15000000                  energy_gap     :    0.08000000
  eps_taylor     :   0.10000E-15                  max_taylor     :             4
  ----------------------------------- OT ---------------------------------------

  Step     Update method      Time    Convergence         Total energy    Change
  ------------------------------------------------------------------------------
     1 OT DIIS     0.15E+00    0.4     0.00420381       -17.1904797064 -1.72E+01
     2 OT DIIS     0.15E+00    0.4     0.00175631       -17.1906359151 -1.56E-04
     3 OT DIIS     0.15E+00    0.4     0.00098164       -17.1906601182 -2.42E-05
     4 OT DIIS     0.15E+00    0.4     0.00005069       -17.1906654075 -5.29E-06
     5 OT DIIS     0.15E+00    0.4     0.00000750       -17.1906654322 -2.47E-08
     6 OT DIIS     0.15E+00    0.6     0.00000090       -17.1906654328 -6.05E-10
     7 OT DIIS     0.15E+00    0.6     0.00000010       -17.1906654328 -8.69E-12

  *** SCF run converged in     7 steps ***


  Electronic density on regular grids:         -8.0000000116       -0.0000000116
  Core density on regular grids:                7.9999999984       -0.0000000016
  Total charge density on r-space grids:       -0.0000000132
  Total charge density g-space grids:          -0.0000000132

  Overlap energy of the core charge distribution:               0.00000003122866
  Self energy of the core charge distribution:                -44.54061621428737
  Core Hamiltonian energy:                                     12.95274621616259
  Hartree energy:                                              18.61593248300975
  Exchange-correlation energy:                                 -4.21872794892648

  Total energy:                                               -17.19066543281284

  outer SCF iter =    1 RMS gradient =   0.96E-07 energy =        -17.1906654328
  outer SCF loop converged in   1 iterations or    7 steps


 ENERGY| Total FORCE_EVAL ( QS ) energy (a.u.):              -17.190665432812953

  @ DRIVER MODE: Received positions 
  @ DRIVER MODE: Message from server: STATUS
  @ DRIVER MODE: Message from server: GETFORCE
  @ DRIVER MODE: Returning v,forces,stress 
  @ DRIVER MODE: Message from server: STATUS
  @ DRIVER MODE: Message from server: STATUS
  @ DRIVER MODE: Message from server: POSDATA

 Number of electrons:                                                          8
 Number of occupied orbitals:                                                  4
 Number of molecular orbitals:                                                 4

 Number of orbital functions:                                                 23
 Number of independent orbital functions:                                     23

 Extrapolation method: ASPC


 SCF WAVEFUNCTION OPTIMIZATION

  ----------------------------------- OT ---------------------------------------
  Minimizer      : DIIS                : direct inversion
                                         in the iterative subspace
                                         using   7 DIIS vectors
                                         safer DIIS on
  Preconditioner : FULL_ALL            : diagonalization, state selective
  Precond_solver : DEFAULT
  stepsize       :    0.15000000                  energy_gap     :    0.08000000
  eps_taylor     :   0.10000E-15                  max_taylor     :             4
  ----------------------------------- OT ---------------------------------------

  Step     Update method      Time    Convergence         Total energy    Change
  ------------------------------------------------------------------------------
     1 OT DIIS     0.15E+00    0.5     0.00161911       -17.1899407348 -1.72E+01
     2 OT DIIS     0.15E+00    0.6     0.00057877       -17.1899645438 -2.38E-05
     3 OT DIIS     0.15E+00    0.6     0.00018259       -17.1899680007 -3.46E-06
     4 OT DIIS     0.15E+00    0.7     0.00004929       -17.1899681796 -1.79E-07
     5 OT DIIS     0.15E+00    0.6     0.00000684       -17.1899681935 -1.38E-08
     6 OT DIIS     0.15E+00    0.6     0.00000041       -17.1899681940 -5.16E-10

  *** SCF run converged in     6 steps ***


  Electronic density on regular grids:         -8.0000000192       -0.0000000192
  Core density on regular grids:                7.9999999991       -0.0000000009
  Total charge density on r-space grids:       -0.0000000200
  Total charge density g-space grids:          -0.0000000200

  Overlap energy of the core charge distribution:               0.00000004396112
  Self energy of the core charge distribution:                -44.54061621428737
  Core Hamiltonian energy:                                     12.98878458249674
  Hartree energy:                                              18.59055281884824
  Exchange-correlation energy:                                 -4.22868942498673

  Total energy:                                               -17.18996819396799

  outer SCF iter =    1 RMS gradient =   0.41E-06 energy =        -17.1899681940
  outer SCF loop converged in   1 iterations or    6 steps


 ENERGY| Total FORCE_EVAL ( QS ) energy (a.u.):              -17.189968193969708

  @ DRIVER MODE: Received positions 
  @ DRIVER MODE: Message from server: STATUS
  @ DRIVER MODE: Message from server: GETFORCE
  @ DRIVER MODE: Returning v,forces,stress 
  @ DRIVER MODE: Message from server: STATUS
  @ DRIVER MODE: Message from server: STATUS
  @ DRIVER MODE: Message from server: POSDATA

 Number of electrons:                                                          8
 Number of occupied orbitals:                                                  4
 Number of molecular orbitals:                                                 4

 Number of orbital functions:                                                 23
 Number of independent orbital functions:                                     23

 Extrapolation method: ASPC


 SCF WAVEFUNCTION OPTIMIZATION

  ----------------------------------- OT ---------------------------------------
  Minimizer      : DIIS                : direct inversion
                                         in the iterative subspace
                                         using   7 DIIS vectors
                                         safer DIIS on
  Preconditioner : FULL_ALL            : diagonalization, state selective
  Precond_solver : DEFAULT
  stepsize       :    0.15000000                  energy_gap     :    0.08000000
  eps_taylor     :   0.10000E-15                  max_taylor     :             4
  ----------------------------------- OT ---------------------------------------

  Step     Update method      Time    Convergence         Total energy    Change
  ------------------------------------------------------------------------------
     1 OT DIIS     0.15E+00    0.6     0.00166455       -17.1891021654 -1.72E+01
     2 OT DIIS     0.15E+00    0.6     0.00063839       -17.1891266973 -2.45E-05
     3 OT DIIS     0.15E+00    0.7     0.00031747       -17.1891302340 -3.54E-06
     4 OT DIIS     0.15E+00    0.7     0.00003524       -17.1891307888 -5.55E-07
     5 OT DIIS     0.15E+00    0.6     0.00000536       -17.1891307987 -9.91E-09
     6 OT DIIS     0.15E+00    0.6     0.00000063       -17.1891307990 -3.10E-10
     7 OT DIIS     0.15E+00    0.6     0.00000006       -17.1891307990 -4.21E-12

  *** SCF run converged in     7 steps ***


  Electronic density on regular grids:         -8.0000000247       -0.0000000247
  Core density on regular grids:                7.9999999997       -0.0000000003
  Total charge density on r-space grids:       -0.0000000250
  Total charge density g-space grids:          -0.0000000250

  Overlap energy of the core charge distribution:               0.00000005950804
  Self energy of the core charge distribution:                -44.54061621428737
  Core Hamiltonian energy:                                     13.01382738315569
  Hartree energy:                                              18.57321626504532
  Exchange-correlation energy:                                 -4.23555829240740

  Total energy:                                               -17.18913079898573

  outer SCF iter =    1 RMS gradient =   0.64E-07 energy =        -17.1891307990
  outer SCF loop converged in   1 iterations or    7 steps


 ENERGY| Total FORCE_EVAL ( QS ) energy (a.u.):              -17.189130798985786

  @ DRIVER MODE: Received positions 
  @ DRIVER MODE: Message from server: STATUS
  @ DRIVER MODE: Message from server: GETFORCE
  @ DRIVER MODE: Returning v,forces,stress 
  @ DRIVER MODE: Message from server: STATUS
  @ DRIVER MODE: Message from server: STATUS
  @ DRIVER MODE: Message from server: POSDATA

 Number of electrons:                                                          8
 Number of occupied orbitals:                                                  4
 Number of molecular orbitals:                                                 4

 Number of orbital functions:                                                 23
 Number of independent orbital functions:                                     23

 Extrapolation method: ASPC


 SCF WAVEFUNCTION OPTIMIZATION

  ----------------------------------- OT ---------------------------------------
  Minimizer      : DIIS                : direct inversion
                                         in the iterative subspace
                                         using   7 DIIS vectors
                                         safer DIIS on
  Preconditioner : FULL_ALL            : diagonalization, state selective
  Precond_solver : DEFAULT
  stepsize       :    0.15000000                  energy_gap     :    0.08000000
  eps_taylor     :   0.10000E-15                  max_taylor     :             4
  ----------------------------------- OT ---------------------------------------

  Step     Update method      Time    Convergence         Total energy    Change
  ------------------------------------------------------------------------------
     1 OT DIIS     0.15E+00    0.5     0.00079097       -17.1886076375 -1.72E+01
     2 OT DIIS     0.15E+00    0.6     0.00035272       -17.1886125320 -4.89E-06
     3 OT DIIS     0.15E+00    0.6     0.00017467       -17.1886132859 -7.54E-07
     4 OT DIIS     0.15E+00    0.6     0.00001167       -17.1886134919 -2.06E-07
     5 OT DIIS     0.15E+00    0.6     0.00000204       -17.1886134933 -1.40E-09
     6 OT DIIS     0.15E+00    0.6     0.00000021       -17.1886134933 -4.51E-11

  *** SCF run converged in     6 steps ***


  Electronic density on regular grids:         -8.0000000296       -0.0000000296
  Core density on regular grids:                8.0000000000       -0.0000000000
  Total charge density on r-space grids:       -0.0000000296
  Total charge density g-space grids:          -0.0000000296

  Overlap energy of the core charge distribution:               0.00000006848349
  Self energy of the core charge distribution:                -44.54061621428737
  Core Hamiltonian energy:                                     13.02094588268666
  Hartree energy:                                              18.56847343829373
  Exchange-correlation energy:                                 -4.23741666847418

  Total energy:                                               -17.18861349329767

  outer SCF iter =    1 RMS gradient =   0.21E-06 energy =        -17.1886134933
  outer SCF loop converged in   1 iterations or    6 steps


 ENERGY| Total FORCE_EVAL ( QS ) energy (a.u.):              -17.188613493298075

  @ DRIVER MODE: Received positions 
  @ DRIVER MODE: Message from server: STATUS
  @ DRIVER MODE: Message from server: GETFORCE
  @ DRIVER MODE: Returning v,forces,stress 
  @ DRIVER MODE: Message from server: STATUS
  @ DRIVER MODE: Message from server: STATUS
  @ DRIVER MODE: Message from server: POSDATA

 Number of electrons:                                                          8
 Number of occupied orbitals:                                                  4
 Number of molecular orbitals:                                                 4

 Number of orbital functions:                                                 23
 Number of independent orbital functions:                                     23

 Extrapolation method: ASPC


 SCF WAVEFUNCTION OPTIMIZATION

  ----------------------------------- OT ---------------------------------------
  Minimizer      : DIIS                : direct inversion
                                         in the iterative subspace
                                         using   7 DIIS vectors
                                         safer DIIS on
  Preconditioner : FULL_ALL            : diagonalization, state selective
  Precond_solver : DEFAULT
  stepsize       :    0.15000000                  energy_gap     :    0.08000000
  eps_taylor     :   0.10000E-15                  max_taylor     :             4
  ----------------------------------- OT ---------------------------------------

  Step     Update method      Time    Convergence         Total energy    Change
  ------------------------------------------------------------------------------
     1 OT DIIS     0.15E+00    0.5     0.00214674       -17.1892137124 -1.72E+01
     2 OT DIIS     0.15E+00    0.7     0.00082977       -17.1892545401 -4.08E-05
     3 OT DIIS     0.15E+00    0.6     0.00042162       -17.1892604223 -5.88E-06
     4 OT DIIS     0.15E+00    0.7     0.00004219       -17.1892613854 -9.63E-07
     5 OT DIIS     0.15E+00    0.6     0.00000747       -17.1892614002 -1.48E-08
     6 OT DIIS     0.15E+00    0.6     0.00000076       -17.1892614008 -6.09E-10
     7 OT DIIS     0.15E+00    0.8     0.00000009       -17.1892614008 -6.12E-12

  *** SCF run converged in     7 steps ***


  Electronic density on regular grids:         -8.0000000318       -0.0000000318
  Core density on regular grids:                8.0000000004        0.0000000004
  Total charge density on r-space grids:       -0.0000000314
  Total charge density g-space grids:          -0.0000000314

  Overlap energy of the core charge distribution:               0.00000005349917
  Self energy of the core charge distribution:                -44.54061621428737
  Core Hamiltonian energy:                                     13.00015240111368
  Hartree energy:                                              18.58286200039972
  Exchange-correlation energy:                                 -4.23165964152756

  Total energy:                                               -17.18926140080236

  outer SCF iter =    1 RMS gradient =   0.90E-07 energy =        -17.1892614008
  outer SCF loop converged in   1 iterations or    7 steps


 ENERGY| Total FORCE_EVAL ( QS ) energy (a.u.):              -17.189261400802447

  @ DRIVER MODE: Received positions 
  @ DRIVER MODE: Message from server: STATUS
  @ DRIVER MODE: Message from server: GETFORCE
  @ DRIVER MODE: Returning v,forces,stress 
  @ DRIVER MODE: Message from server: STATUS
  @ DRIVER MODE: Message from server: STATUS
  @ DRIVER MODE: Message from server: POSDATA

 Number of electrons:                                                          8
 Number of occupied orbitals:                                                  4
 Number of molecular orbitals:                                                 4

 Number of orbital functions:                                                 23
 Number of independent orbital functions:                                     23

 Extrapolation method: ASPC


 SCF WAVEFUNCTION OPTIMIZATION

  ----------------------------------- OT ---------------------------------------
  Minimizer      : DIIS                : direct inversion
                                         in the iterative subspace
                                         using   7 DIIS vectors
                                         safer DIIS on
  Preconditioner : FULL_ALL            : diagonalization, state selective
  Precond_solver : DEFAULT
  stepsize       :    0.15000000                  energy_gap     :    0.08000000
  eps_taylor     :   0.10000E-15                  max_taylor     :             4
  ----------------------------------- OT ---------------------------------------

  Step     Update method      Time    Convergence         Total energy    Change
  ------------------------------------------------------------------------------
     1 OT DIIS     0.15E+00    0.5     0.00120149       -17.1905518913 -1.72E+01
     2 OT DIIS     0.15E+00    0.6     0.00046328       -17.1905656426 -1.38E-05
     3 OT DIIS     0.15E+00    0.6     0.00004638       -17.1905680679 -2.43E-06
     4 OT DIIS     0.15E+00    0.6     0.00002064       -17.1905680780 -1.01E-08
     5 OT DIIS     0.15E+00    0.6     0.00000216       -17.1905680801 -2.09E-09
     6 OT DIIS     0.15E+00    0.6     0.00000014       -17.1905680802 -4.90E-11

  *** SCF run converged in     6 steps ***


  Electronic density on regular grids:         -8.0000000320       -0.0000000320
  Core density on regular grids:                8.0000000008        0.0000000008
  Total charge density on r-space grids:       -0.0000000312
  Total charge density g-space grids:          -0.0000000312

  Overlap energy of the core charge distribution:               0.00000003076203
  Self energy of the core charge distribution:                -44.54061621428737
  Core Hamiltonian energy:                                     12.95754525775112
  Hartree energy:                                              18.61248487019268
  Exchange-correlation energy:                                 -4.21998202460650

  Total energy:                                               -17.19056808018804

  outer SCF iter =    1 RMS gradient =   0.14E-06 energy =        -17.1905680802
  outer SCF loop converged in   1 iterations or    6 steps


 ENERGY| Total FORCE_EVAL ( QS ) energy (a.u.):              -17.190568080188235

  @ DRIVER MODE: Received positions 
  @ DRIVER MODE: Message from server: STATUS
  @ DRIVER MODE: Message from server: GETFORCE
  @ DRIVER MODE: Returning v,forces,stress 
  @ DRIVER MODE: Message from server: STATUS
  @ DRIVER MODE: Message from server: STATUS
  @ DRIVER MODE: Message from server: POSDATA

 Number of electrons:                                                          8
 Number of occupied orbitals:                                                  4
 Number of molecular orbitals:                                                 4

 Number of orbital functions:                                                 23
 Number of independent orbital functions:                                     23

 Extrapolation method: ASPC


 SCF WAVEFUNCTION OPTIMIZATION

  ----------------------------------- OT ---------------------------------------
  Minimizer      : DIIS                : direct inversion
                                         in the iterative subspace
                                         using   7 DIIS vectors
                                         safer DIIS on
  Preconditioner : FULL_ALL            : diagonalization, state selective
  Precond_solver : DEFAULT
  stepsize       :    0.15000000                  energy_gap     :    0.08000000
  eps_taylor     :   0.10000E-15                  max_taylor     :             4
  ----------------------------------- OT ---------------------------------------

  Step     Update method      Time    Convergence         Total energy    Change
  ------------------------------------------------------------------------------
     1 OT DIIS     0.15E+00    0.5     0.00100920       -17.1911055299 -1.72E+01
     2 OT DIIS     0.15E+00    0.6     0.00044371       -17.1911144437 -8.91E-06
     3 OT DIIS     0.15E+00    0.6     0.00025573       -17.1911158842 -1.44E-06
     4 OT DIIS     0.15E+00    0.7     0.00000821       -17.1911162530 -3.69E-07
     5 OT DIIS     0.15E+00    0.6     0.00000181       -17.1911162536 -6.86E-10
     6 OT DIIS     0.15E+00    0.6     0.00000013       -17.1911162537 -3.54E-11

  *** SCF run converged in     6 steps ***


  Electronic density on regular grids:         -8.0000000300       -0.0000000300
  Core density on regular grids:                8.0000000004        0.0000000004
  Total charge density on r-space grids:       -0.0000000296
  Total charge density g-space grids:          -0.0000000296

  Overlap energy of the core charge distribution:               0.00000001770188
  Self energy of the core charge distribution:                -44.54061621428737
  Core Hamiltonian energy:                                     12.91024077790028
  Hartree energy:                                              18.64603510182277
  Exchange-correlation energy:                                 -4.20677593682019

  Total energy:                                               -17.19111625368262

  outer SCF iter =    1 RMS gradient =   0.13E-06 energy =        -17.1911162537
  outer SCF loop converged in   1 iterations or    6 steps


 ENERGY| Total FORCE_EVAL ( QS ) energy (a.u.):              -17.191116253682814

  @ DRIVER MODE: Received positions 
  @ DRIVER MODE: Message from server: STATUS
  @ DRIVER MODE: Message from server: GETFORCE
  @ DRIVER MODE: Returning v,forces,stress 
  @ DRIVER MODE: Message from server: STATUS
  @ DRIVER MODE: Message from server: STATUS
  @ DRIVER MODE: Message from server: POSDATA

 Number of electrons:                                                          8
 Number of occupied orbitals:                                                  4
 Number of molecular orbitals:                                                 4

 Number of orbital functions:                                                 23
 Number of independent orbital functions:                                     23

 Extrapolation method: ASPC


 SCF WAVEFUNCTION OPTIMIZATION

  ----------------------------------- OT ---------------------------------------
  Minimizer      : DIIS                : direct inversion
                                         in the iterative subspace
                                         using   7 DIIS vectors
                                         safer DIIS on
  Preconditioner : FULL_ALL            : diagonalization, state selective
  Precond_solver : DEFAULT
  stepsize       :    0.15000000                  energy_gap     :    0.08000000
  eps_taylor     :   0.10000E-15                  max_taylor     :             4
  ----------------------------------- OT ---------------------------------------

  Step     Update method      Time    Convergence         Total energy    Change
  ------------------------------------------------------------------------------
     1 OT DIIS     0.15E+00    0.5     0.00114624       -17.1908849055 -1.72E+01
     2 OT DIIS     0.15E+00    0.6     0.00049418       -17.1908960307 -1.11E-05
     3 OT DIIS     0.15E+00    0.6     0.00028882       -17.1908976654 -1.63E-06
     4 OT DIIS     0.15E+00    0.6     0.00001743       -17.1908981337 -4.68E-07
     5 OT DIIS     0.15E+00    0.7     0.00000357       -17.1908981365 -2.84E-09
     6 OT DIIS     0.15E+00    0.7     0.00000043       -17.1908981366 -1.38E-10

  *** SCF run converged in     6 steps ***


  Electronic density on regular grids:         -8.0000000282       -0.0000000282
  Core density on regular grids:                7.9999999996       -0.0000000004
  Total charge density on r-space grids:       -0.0000000285
  Total charge density g-space grids:          -0.0000000285

  Overlap energy of the core charge distribution:               0.00000001292172
  Self energy of the core charge distribution:                -44.54061621428737
  Core Hamiltonian energy:                                     12.87474982696240
  Hartree energy:                                              18.67174322666678
  Exchange-correlation energy:                                 -4.19677498891309

  Total energy:                                               -17.19089813664956

  outer SCF iter =    1 RMS gradient =   0.43E-06 energy =        -17.1908981366
  outer SCF loop converged in   1 iterations or    6 steps


 ENERGY| Total FORCE_EVAL ( QS ) energy (a.u.):              -17.190898136651562

  @ DRIVER MODE: Received positions 
  @ DRIVER MODE: Message from server: STATUS
  @ DRIVER MODE: Message from server: GETFORCE
  @ DRIVER MODE: Returning v,forces,stress 
  @ DRIVER MODE: Message from server: STATUS
  @ DRIVER MODE: Message from server: STATUS
  @ DRIVER MODE: Message from server: POSDATA

 Number of electrons:                                                          8
 Number of occupied orbitals:                                                  4
 Number of molecular orbitals:                                                 4

 Number of orbital functions:                                                 23
 Number of independent orbital functions:                                     23

 Extrapolation method: ASPC


 SCF WAVEFUNCTION OPTIMIZATION

  ----------------------------------- OT ---------------------------------------
  Minimizer      : DIIS                : direct inversion
                                         in the iterative subspace
                                         using   7 DIIS vectors
                                         safer DIIS on
  Preconditioner : FULL_ALL            : diagonalization, state selective
  Precond_solver : DEFAULT
  stepsize       :    0.15000000                  energy_gap     :    0.08000000
  eps_taylor     :   0.10000E-15                  max_taylor     :             4
  ----------------------------------- OT ---------------------------------------

  Step     Update method      Time    Convergence         Total energy    Change
  ------------------------------------------------------------------------------
     1 OT DIIS     0.15E+00    0.5     0.00198175       -17.1911082744 -1.72E+01
     2 OT DIIS     0.15E+00    0.6     0.00090511       -17.1911396584 -3.14E-05
     3 OT DIIS     0.15E+00    0.6     0.00049739       -17.1911444539 -4.80E-06
     4 OT DIIS     0.15E+00    0.6     0.00003111       -17.1911459649 -1.51E-06
     5 OT DIIS     0.15E+00    0.6     0.00000541       -17.1911459748 -9.88E-09
     6 OT DIIS     0.15E+00    1.2     0.00000070       -17.1911459751 -3.19E-10
     7 OT DIIS     0.15E+00    0.8     0.00000008       -17.1911459751 -5.29E-12

  *** SCF run converged in     7 steps ***


  Electronic density on regular grids:         -8.0000000267       -0.0000000267
  Core density on regular grids:                7.9999999988       -0.0000000012
  Total charge density on r-space grids:       -0.0000000279
  Total charge density g-space grids:          -0.0000000279

  Overlap energy of the core charge distribution:               0.00000001388465
  Self energy of the core charge distribution:                -44.54061621428737
  Core Hamiltonian energy:                                     12.87214616463663
  Hartree energy:                                              18.67385926613353
  Exchange-correlation energy:                                 -4.19653520547745

  Total energy:                                               -17.19114597511000

  outer SCF iter =    1 RMS gradient =   0.77E-07 energy =        -17.1911459751
  outer SCF loop converged in   1 iterations or    7 steps


 ENERGY| Total FORCE_EVAL ( QS ) energy (a.u.):              -17.191145975110089

  @ DRIVER MODE: Received positions 
  @ DRIVER MODE: Message from server: STATUS
  @ DRIVER MODE: Message from server: GETFORCE
  @ DRIVER MODE: Returning v,forces,stress 
  @ DRIVER MODE: Message from server: STATUS
  @ DRIVER MODE: Message from server: STATUS
  @ DRIVER MODE: Message from server: POSDATA

 Number of electrons:                                                          8
 Number of occupied orbitals:                                                  4
 Number of molecular orbitals:                                                 4

 Number of orbital functions:                                                 23
 Number of independent orbital functions:                                     23

 Extrapolation method: ASPC


 SCF WAVEFUNCTION OPTIMIZATION

  ----------------------------------- OT ---------------------------------------
  Minimizer      : DIIS                : direct inversion
                                         in the iterative subspace
                                         using   7 DIIS vectors
                                         safer DIIS on
  Preconditioner : FULL_ALL            : diagonalization, state selective
  Precond_solver : DEFAULT
  stepsize       :    0.15000000                  energy_gap     :    0.08000000
  eps_taylor     :   0.10000E-15                  max_taylor     :             4
  ----------------------------------- OT ---------------------------------------

  Step     Update method      Time    Convergence         Total energy    Change
  ------------------------------------------------------------------------------
     1 OT DIIS     0.15E+00    0.6     0.00120469       -17.1917547595 -1.72E+01
     2 OT DIIS     0.15E+00    0.6     0.00049054       -17.1917672561 -1.25E-05
     3 OT DIIS     0.15E+00    0.6     0.00028682       -17.1917690036 -1.75E-06
     4 OT DIIS     0.15E+00    0.6     0.00002393       -17.1917694452 -4.42E-07
     5 OT DIIS     0.15E+00    0.6     0.00000435       -17.1917694504 -5.19E-09
     6 OT DIIS     0.15E+00    0.6     0.00000052       -17.1917694506 -2.07E-10
     7 OT DIIS     0.15E+00    0.6     0.00000006       -17.1917694506 -2.83E-12

  *** SCF run converged in     7 steps ***


  Electronic density on regular grids:         -8.0000000274       -0.0000000274
  Core density on regular grids:                7.9999999997       -0.0000000003
  Total charge density on r-space grids:       -0.0000000277
  Total charge density g-space grids:          -0.0000000277

  Overlap energy of the core charge distribution:               0.00000001645633
  Self energy of the core charge distribution:                -44.54061621428737
  Core Hamiltonian energy:                                     12.88970989705330
  Hartree energy:                                              18.66149263713758
  Exchange-correlation energy:                                 -4.20235578695211

  Total energy:                                               -17.19176945059227

  outer SCF iter =    1 RMS gradient =   0.58E-07 energy =        -17.1917694506
  outer SCF loop converged in   1 iterations or    7 steps


 ENERGY| Total FORCE_EVAL ( QS ) energy (a.u.):              -17.191769450592332

  @ DRIVER MODE: Received positions 
  @ DRIVER MODE: Message from server: STATUS
  @ DRIVER MODE: Message from server: GETFORCE
  @ DRIVER MODE: Returning v,forces,stress 
  @ DRIVER MODE: Message from server: STATUS
  @ DRIVER MODE: Message from server: STATUS
  @ DRIVER MODE: Message from server: POSDATA

 Number of electrons:                                                          8
 Number of occupied orbitals:                                                  4
 Number of molecular orbitals:                                                 4

 Number of orbital functions:                                                 23
 Number of independent orbital functions:                                     23

 Extrapolation method: ASPC


 SCF WAVEFUNCTION OPTIMIZATION

  ----------------------------------- OT ---------------------------------------
  Minimizer      : DIIS                : direct inversion
                                         in the iterative subspace
                                         using   7 DIIS vectors
                                         safer DIIS on
  Preconditioner : FULL_ALL            : diagonalization, state selective
  Precond_solver : DEFAULT
  stepsize       :    0.15000000                  energy_gap     :    0.08000000
  eps_taylor     :   0.10000E-15                  max_taylor     :             4
  ----------------------------------- OT ---------------------------------------

  Step     Update method      Time    Convergence         Total energy    Change
  ------------------------------------------------------------------------------
     1 OT DIIS     0.15E+00    0.5     0.00066978       -17.1917644789 -1.72E+01
     2 OT DIIS     0.15E+00    0.6     0.00025846       -17.1917686525 -4.17E-06
     3 OT DIIS     0.15E+00    0.6     0.00010480       -17.1917693286 -6.76E-07
     4 OT DIIS     0.15E+00    0.9     0.00001185       -17.1917693791 -5.06E-08
     5 OT DIIS     0.15E+00    0.8     0.00000147       -17.1917693802 -1.04E-09
     6 OT DIIS     0.15E+00    0.7     0.00000011       -17.1917693802 -2.35E-11

  *** SCF run converged in     6 steps ***


  Electronic density on regular grids:         -8.0000000284       -0.0000000284
  Core density on regular grids:                8.0000000015        0.0000000015
  Total charge density on r-space grids:       -0.0000000270
  Total charge density g-space grids:          -0.0000000270

  Overlap energy of the core charge distribution:               0.00000002096675
  Self energy of the core charge distribution:                -44.54061621428737
  Core Hamiltonian energy:                                     12.91711595718745
  Hartree energy:                                              18.64266055596991
  Exchange-correlation energy:                                 -4.21092970002958

  Total energy:                                               -17.19176938019284

  outer SCF iter =    1 RMS gradient =   0.11E-06 energy =        -17.1917693802
  outer SCF loop converged in   1 iterations or    6 steps


 ENERGY| Total FORCE_EVAL ( QS ) energy (a.u.):              -17.191769380192980

  @ DRIVER MODE: Received positions 
  @ DRIVER MODE: Message from server: STATUS
  @ DRIVER MODE: Message from server: GETFORCE
  @ DRIVER MODE: Returning v,forces,stress 
  @ DRIVER MODE: Message from server: STATUS
  @ DRIVER MODE: Message from server: STATUS
  @ DRIVER MODE: Message from server: POSDATA

 Number of electrons:                                                          8
 Number of occupied orbitals:                                                  4
 Number of molecular orbitals:                                                 4

 Number of orbital functions:                                                 23
 Number of independent orbital functions:                                     23

 Extrapolation method: ASPC


 SCF WAVEFUNCTION OPTIMIZATION

  ----------------------------------- OT ---------------------------------------
  Minimizer      : DIIS                : direct inversion
                                         in the iterative subspace
                                         using   7 DIIS vectors
                                         safer DIIS on
  Preconditioner : FULL_ALL            : diagonalization, state selective
  Precond_solver : DEFAULT
  stepsize       :    0.15000000                  energy_gap     :    0.08000000
  eps_taylor     :   0.10000E-15                  max_taylor     :             4
  ----------------------------------- OT ---------------------------------------

  Step     Update method      Time    Convergence         Total energy    Change
  ------------------------------------------------------------------------------
     1 OT DIIS     0.15E+00    0.5     0.00104498       -17.1902086088 -1.72E+01
     2 OT DIIS     0.15E+00    0.6     0.00044778       -17.1902178983 -9.29E-06
     3 OT DIIS     0.15E+00    0.6     0.00025392       -17.1902192933 -1.40E-06
     4 OT DIIS     0.15E+00    0.6     0.00001491       -17.1902196677 -3.74E-07
     5 OT DIIS     0.15E+00    0.6     0.00000262       -17.1902196699 -2.18E-09
     6 OT DIIS     0.15E+00    0.6     0.00000019       -17.1902196700 -7.54E-11

  *** SCF run converged in     6 steps ***


  Electronic density on regular grids:         -8.0000000291       -0.0000000291
  Core density on regular grids:                8.0000000009        0.0000000009
  Total charge density on r-space grids:       -0.0000000282
  Total charge density g-space grids:          -0.0000000282

  Overlap energy of the core charge distribution:               0.00000003699407
  Self energy of the core charge distribution:                -44.54061621428737
  Core Hamiltonian energy:                                     12.95899949213523
  Hartree energy:                                              18.61468705860635
  Exchange-correlation energy:                                 -4.22329004340385

  Total energy:                                               -17.19021966995557

  outer SCF iter =    1 RMS gradient =   0.19E-06 energy =        -17.1902196700
  outer SCF loop converged in   1 iterations or    6 steps


 ENERGY| Total FORCE_EVAL ( QS ) energy (a.u.):              -17.190219669955944

  @ DRIVER MODE: Received positions 
  @ DRIVER MODE: Message from server: STATUS
  @ DRIVER MODE: Message from server: GETFORCE
  @ DRIVER MODE: Returning v,forces,stress 
  @ DRIVER MODE: Message from server: STATUS
  @ DRIVER MODE: Message from server: STATUS
  @ DRIVER MODE: Message from server: POSDATA

 Number of electrons:                                                          8
 Number of occupied orbitals:                                                  4
 Number of molecular orbitals:                                                 4

 Number of orbital functions:                                                 23
 Number of independent orbital functions:                                     23

 Extrapolation method: ASPC


 SCF WAVEFUNCTION OPTIMIZATION

  ----------------------------------- OT ---------------------------------------
  Minimizer      : DIIS                : direct inversion
                                         in the iterative subspace
                                         using   7 DIIS vectors
                                         safer DIIS on
  Preconditioner : FULL_ALL            : diagonalization, state selective
  Precond_solver : DEFAULT
  stepsize       :    0.15000000                  energy_gap     :    0.08000000
  eps_taylor     :   0.10000E-15                  max_taylor     :             4
  ----------------------------------- OT ---------------------------------------

  Step     Update method      Time    Convergence         Total energy    Change
  ------------------------------------------------------------------------------
     1 OT DIIS     0.15E+00    0.5     0.00264117       -17.1880529811 -1.72E+01
     2 OT DIIS     0.15E+00    0.6     0.00109454       -17.1881104503 -5.75E-05
     3 OT DIIS     0.15E+00    0.6     0.00060845       -17.1881183111 -7.86E-06
     4 OT DIIS     0.15E+00    0.6     0.00005191       -17.1881204793 -2.17E-06
     5 OT DIIS     0.15E+00    0.6     0.00000827       -17.1881205056 -2.63E-08
     6 OT DIIS     0.15E+00    0.6     0.00000077       -17.1881205063 -7.58E-10
     7 OT DIIS     0.15E+00    0.6     0.00000010       -17.1881205063 -6.43E-12

  *** SCF run converged in     7 steps ***


  Electronic density on regular grids:         -8.0000000295       -0.0000000295
  Core density on regular grids:                7.9999999998       -0.0000000002
  Total charge density on r-space grids:       -0.0000000298
  Total charge density g-space grids:          -0.0000000298

  Overlap energy of the core charge distribution:               0.00000005417588
  Self energy of the core charge distribution:                -44.54061621428737
  Core Hamiltonian energy:                                     12.98398659677668
  Hartree energy:                                              18.59893308468440
  Exchange-correlation energy:                                 -4.23042402769931

  Total energy:                                               -17.18812050634971

  outer SCF iter =    1 RMS gradient =   0.10E-06 energy =        -17.1881205063
  outer SCF loop converged in   1 iterations or    7 steps


 ENERGY| Total FORCE_EVAL ( QS ) energy (a.u.):              -17.188120506349847

  @ DRIVER MODE: Received positions 
  @ DRIVER MODE: Message from server: STATUS
  @ DRIVER MODE: Message from server: GETFORCE
  @ DRIVER MODE: Returning v,forces,stress 
  @ DRIVER MODE: Message from server: STATUS
  @ DRIVER MODE: Message from server: STATUS
  @ DRIVER MODE: Message from server: POSDATA

 Number of electrons:                                                          8
 Number of occupied orbitals:                                                  4
 Number of molecular orbitals:                                                 4

 Number of orbital functions:                                                 23
 Number of independent orbital functions:                                     23

 Extrapolation method: ASPC


 SCF WAVEFUNCTION OPTIMIZATION

  ----------------------------------- OT ---------------------------------------
  Minimizer      : DIIS                : direct inversion
                                         in the iterative subspace
                                         using   7 DIIS vectors
                                         safer DIIS on
  Preconditioner : FULL_ALL            : diagonalization, state selective
  Precond_solver : DEFAULT
  stepsize       :    0.15000000                  energy_gap     :    0.08000000
  eps_taylor     :   0.10000E-15                  max_taylor     :             4
  ----------------------------------- OT ---------------------------------------

  Step     Update method      Time    Convergence         Total energy    Change
  ------------------------------------------------------------------------------
     1 OT DIIS     0.15E+00    0.5     0.00168221       -17.1878027199 -1.72E+01
     2 OT DIIS     0.15E+00    0.7     0.00070579       -17.1878263802 -2.37E-05
     3 OT DIIS     0.15E+00    0.6     0.00039983       -17.1878297406 -3.36E-06
     4 OT DIIS     0.15E+00    0.6     0.00003176       -17.1878306720 -9.31E-07
     5 OT DIIS     0.15E+00    0.6     0.00000412       -17.1878306817 -9.74E-09
     6 OT DIIS     0.15E+00    0.6     0.00000018       -17.1878306819 -1.88E-10

  *** SCF run converged in     6 steps ***


  Electronic density on regular grids:         -8.0000000286       -0.0000000286
  Core density on regular grids:                7.9999999998       -0.0000000002
  Total charge density on r-space grids:       -0.0000000288
  Total charge density g-space grids:          -0.0000000288

  Overlap energy of the core charge distribution:               0.00000004338160
  Self energy of the core charge distribution:                -44.54061621428737
  Core Hamiltonian energy:                                     12.96653228624408
  Hartree energy:                                              18.61163021197697
  Exchange-correlation energy:                                 -4.22537700921579

  Total energy:                                               -17.18783068190051

  outer SCF iter =    1 RMS gradient =   0.18E-06 energy =        -17.1878306819
  outer SCF loop converged in   1 iterations or    6 steps


 ENERGY| Total FORCE_EVAL ( QS ) energy (a.u.):              -17.187830681900849

  @ DRIVER MODE: Received positions 
  @ DRIVER MODE: Message from server: STATUS
  @ DRIVER MODE: Message from server: GETFORCE
  @ DRIVER MODE: Returning v,forces,stress 
  @ DRIVER MODE: Message from server: STATUS
  @ DRIVER MODE: Message from server: STATUS
  @ DRIVER MODE: Message from server: POSDATA

 Number of electrons:                                                          8
 Number of occupied orbitals:                                                  4
 Number of molecular orbitals:                                                 4

 Number of orbital functions:                                                 23
 Number of independent orbital functions:                                     23

 Extrapolation method: ASPC


 SCF WAVEFUNCTION OPTIMIZATION

  ----------------------------------- OT ---------------------------------------
  Minimizer      : DIIS                : direct inversion
                                         in the iterative subspace
                                         using   7 DIIS vectors
                                         safer DIIS on
  Preconditioner : FULL_ALL            : diagonalization, state selective
  Precond_solver : DEFAULT
  stepsize       :    0.15000000                  energy_gap     :    0.08000000
  eps_taylor     :   0.10000E-15                  max_taylor     :             4
  ----------------------------------- OT ---------------------------------------

  Step     Update method      Time    Convergence         Total energy    Change
  ------------------------------------------------------------------------------
     1 OT DIIS     0.15E+00    0.5     0.00185384       -17.1887959154 -1.72E+01
     2 OT DIIS     0.15E+00    0.6     0.00074385       -17.1888260100 -3.01E-05
     3 OT DIIS     0.15E+00    0.6     0.00042761       -17.1888302701 -4.26E-06
     4 OT DIIS     0.15E+00    0.6     0.00003376       -17.1888312233 -9.53E-07
     5 OT DIIS     0.15E+00    0.6     0.00000657       -17.1888312336 -1.03E-08
     6 OT DIIS     0.15E+00    0.6     0.00000054       -17.1888312341 -4.72E-10
     7 OT DIIS     0.15E+00    0.6     0.00000008       -17.1888312341 -3.04E-12

  *** SCF run converged in     7 steps ***


  Electronic density on regular grids:         -8.0000000270       -0.0000000270
  Core density on regular grids:                8.0000000003        0.0000000003
  Total charge density on r-space grids:       -0.0000000267
  Total charge density g-space grids:          -0.0000000267

  Overlap energy of the core charge distribution:               0.00000002412387
  Self energy of the core charge distribution:                -44.54061621428737
  Core Hamiltonian energy:                                     12.92751337612462
  Hartree energy:                                              18.63837602978242
  Exchange-correlation energy:                                 -4.21410444985444

  Total energy:                                               -17.18883123411090

  outer SCF iter =    1 RMS gradient =   0.85E-07 energy =        -17.1888312341
  outer SCF loop converged in   1 iterations or    7 steps


 ENERGY| Total FORCE_EVAL ( QS ) energy (a.u.):              -17.188831234110996

  @ DRIVER MODE: Received positions 
  @ DRIVER MODE: Message from server: STATUS
  @ DRIVER MODE: Message from server: GETFORCE
  @ DRIVER MODE: Returning v,forces,stress 
  @ DRIVER MODE: Message from server: STATUS
  @ DRIVER MODE: Message from server: STATUS
  @ DRIVER MODE: Message from server: POSDATA

 Number of electrons:                                                          8
 Number of occupied orbitals:                                                  4
 Number of molecular orbitals:                                                 4

 Number of orbital functions:                                                 23
 Number of independent orbital functions:                                     23

 Extrapolation method: ASPC


 SCF WAVEFUNCTION OPTIMIZATION

  ----------------------------------- OT ---------------------------------------
  Minimizer      : DIIS                : direct inversion
                                         in the iterative subspace
                                         using   7 DIIS vectors
                                         safer DIIS on
  Preconditioner : FULL_ALL            : diagonalization, state selective
  Precond_solver : DEFAULT
  stepsize       :    0.15000000                  energy_gap     :    0.08000000
  eps_taylor     :   0.10000E-15                  max_taylor     :             4
  ----------------------------------- OT ---------------------------------------

  Step     Update method      Time    Convergence         Total energy    Change
  ------------------------------------------------------------------------------
     1 OT DIIS     0.15E+00    0.5     0.00162796       -17.1892360529 -1.72E+01
     2 OT DIIS     0.15E+00    0.6     0.00059857       -17.1892606299 -2.46E-05
     3 OT DIIS     0.15E+00    0.6     0.00016550       -17.1892644420 -3.81E-06
     4 OT DIIS     0.15E+00    0.6     0.00004566       -17.1892645683 -1.26E-07
     5 OT DIIS     0.15E+00    0.7     0.00000705       -17.1892645797 -1.14E-08
     6 OT DIIS     0.15E+00    0.7     0.00000039       -17.1892645803 -5.52E-10

  *** SCF run converged in     6 steps ***


  Electronic density on regular grids:         -8.0000000253       -0.0000000253
  Core density on regular grids:                7.9999999998       -0.0000000002
  Total charge density on r-space grids:       -0.0000000255
  Total charge density g-space grids:          -0.0000000255

  Overlap energy of the core charge distribution:               0.00000001419134
  Self energy of the core charge distribution:                -44.54061621428737
  Core Hamiltonian energy:                                     12.88088573977626
  Hartree energy:                                              18.67067376623189
  Exchange-correlation energy:                                 -4.20020788617791

  Total energy:                                               -17.18926458026579

  outer SCF iter =    1 RMS gradient =   0.39E-06 energy =        -17.1892645803
  outer SCF loop converged in   1 iterations or    6 steps


 ENERGY| Total FORCE_EVAL ( QS ) energy (a.u.):              -17.189264580267356

  @ DRIVER MODE: Received positions 
  @ DRIVER MODE: Message from server: STATUS
  @ DRIVER MODE: Message from server: GETFORCE
  @ DRIVER MODE: Returning v,forces,stress 
  @ DRIVER MODE: Message from server: STATUS
  @ DRIVER MODE: Message from server: STATUS
  @ DRIVER MODE: Message from server: POSDATA

 Number of electrons:                                                          8
 Number of occupied orbitals:                                                  4
 Number of molecular orbitals:                                                 4

 Number of orbital functions:                                                 23
 Number of independent orbital functions:                                     23

 Extrapolation method: ASPC


 SCF WAVEFUNCTION OPTIMIZATION

  ----------------------------------- OT ---------------------------------------
  Minimizer      : DIIS                : direct inversion
                                         in the iterative subspace
                                         using   7 DIIS vectors
                                         safer DIIS on
  Preconditioner : FULL_ALL            : diagonalization, state selective
  Precond_solver : DEFAULT
  stepsize       :    0.15000000                  energy_gap     :    0.08000000
  eps_taylor     :   0.10000E-15                  max_taylor     :             4
  ----------------------------------- OT ---------------------------------------

  Step     Update method      Time    Convergence         Total energy    Change
  ------------------------------------------------------------------------------
     1 OT DIIS     0.15E+00    0.6     0.00134591       -17.1892145670 -1.72E+01
     2 OT DIIS     0.15E+00    0.7     0.00058016       -17.1892299836 -1.54E-05
     3 OT DIIS     0.15E+00    0.6     0.00035364       -17.1892322132 -2.23E-06
     4 OT DIIS     0.15E+00    0.7     0.00002203       -17.1892328871 -6.74E-07
     5 OT DIIS     0.15E+00    0.7     0.00000378       -17.1892328918 -4.71E-09
     6 OT DIIS     0.15E+00    0.6     0.00000038       -17.1892328920 -2.05E-10

  *** SCF run converged in     6 steps ***


  Electronic density on regular grids:         -8.0000000259       -0.0000000259
  Core density on regular grids:                7.9999999988       -0.0000000012
  Total charge density on r-space grids:       -0.0000000271
  Total charge density g-space grids:          -0.0000000271

  Overlap energy of the core charge distribution:               0.00000001006075
  Self energy of the core charge distribution:                -44.54061621428737
  Core Hamiltonian energy:                                     12.84543074134707
  Hartree energy:                                              18.69527164626582
  Exchange-correlation energy:                                 -4.18931907541716

  Total energy:                                               -17.18923289203089

  outer SCF iter =    1 RMS gradient =   0.38E-06 energy =        -17.1892328920
  outer SCF loop converged in   1 iterations or    6 steps


 ENERGY| Total FORCE_EVAL ( QS ) energy (a.u.):              -17.189232892032440

  @ DRIVER MODE: Received positions 
  @ DRIVER MODE: Message from server: STATUS
  @ DRIVER MODE: Message from server: GETFORCE
  @ DRIVER MODE: Returning v,forces,stress 
  @ DRIVER MODE: Message from server: STATUS
  @ DRIVER MODE: Message from server: STATUS
  @ DRIVER MODE: Message from server: POSDATA

 Number of electrons:                                                          8
 Number of occupied orbitals:                                                  4
 Number of molecular orbitals:                                                 4

 Number of orbital functions:                                                 23
 Number of independent orbital functions:                                     23

 Extrapolation method: ASPC


 SCF WAVEFUNCTION OPTIMIZATION

  ----------------------------------- OT ---------------------------------------
  Minimizer      : DIIS                : direct inversion
                                         in the iterative subspace
                                         using   7 DIIS vectors
                                         safer DIIS on
  Preconditioner : FULL_ALL            : diagonalization, state selective
  Precond_solver : DEFAULT
  stepsize       :    0.15000000                  energy_gap     :    0.08000000
  eps_taylor     :   0.10000E-15                  max_taylor     :             4
  ----------------------------------- OT ---------------------------------------

  Step     Update method      Time    Convergence         Total energy    Change
  ------------------------------------------------------------------------------
     1 OT DIIS     0.15E+00    0.6     0.00115430       -17.1894472144 -1.72E+01
     2 OT DIIS     0.15E+00    0.6     0.00051460       -17.1894583018 -1.11E-05
     3 OT DIIS     0.15E+00    0.6     0.00030724       -17.1894599348 -1.63E-06
     4 OT DIIS     0.15E+00    0.6     0.00001757       -17.1894604615 -5.27E-07
     5 OT DIIS     0.15E+00    0.8     0.00000323       -17.1894604646 -3.10E-09
     6 OT DIIS     0.15E+00    0.7     0.00000024       -17.1894604647 -1.14E-10

  *** SCF run converged in     6 steps ***


  Electronic density on regular grids:         -8.0000000293       -0.0000000293
  Core density on regular grids:                7.9999999990       -0.0000000010
  Total charge density on r-space grids:       -0.0000000303
  Total charge density g-space grids:          -0.0000000303

  Overlap energy of the core charge distribution:               0.00000000929549
  Self energy of the core charge distribution:                -44.54061621428737
  Core Hamiltonian energy:                                     12.83472468918549
  Hartree energy:                                              18.70225340134422
  Exchange-correlation energy:                                 -4.18582235022596

  Total energy:                                               -17.18946046468814

  outer SCF iter =    1 RMS gradient =   0.24E-06 energy =        -17.1894604647
  outer SCF loop converged in   1 iterations or    6 steps


 ENERGY| Total FORCE_EVAL ( QS ) energy (a.u.):              -17.189460464688750

  @ DRIVER MODE: Received positions 
  @ DRIVER MODE: Message from server: STATUS
  @ DRIVER MODE: Message from server: GETFORCE
  @ DRIVER MODE: Returning v,forces,stress 
  @ DRIVER MODE: Message from server: STATUS
  @ DRIVER MODE: Message from server: STATUS
  @ DRIVER MODE: Message from server: POSDATA

 Number of electrons:                                                          8
 Number of occupied orbitals:                                                  4
 Number of molecular orbitals:                                                 4

 Number of orbital functions:                                                 23
 Number of independent orbital functions:                                     23

 Extrapolation method: ASPC


 SCF WAVEFUNCTION OPTIMIZATION

  ----------------------------------- OT ---------------------------------------
  Minimizer      : DIIS                : direct inversion
                                         in the iterative subspace
                                         using   7 DIIS vectors
                                         safer DIIS on
  Preconditioner : FULL_ALL            : diagonalization, state selective
  Precond_solver : DEFAULT
  stepsize       :    0.15000000                  energy_gap     :    0.08000000
  eps_taylor     :   0.10000E-15                  max_taylor     :             4
  ----------------------------------- OT ---------------------------------------

  Step     Update method      Time    Convergence         Total energy    Change
  ------------------------------------------------------------------------------
     1 OT DIIS     0.15E+00    0.5     0.00167655       -17.1907157033 -1.72E+01
     2 OT DIIS     0.15E+00    0.6     0.00066506       -17.1907408674 -2.52E-05
     3 OT DIIS     0.15E+00    0.6     0.00037832       -17.1907445285 -3.66E-06
     4 OT DIIS     0.15E+00    0.6     0.00003099       -17.1907452255 -6.97E-07
     5 OT DIIS     0.15E+00    0.6     0.00000655       -17.1907452335 -8.01E-09
     6 OT DIIS     0.15E+00    0.6     0.00000046       -17.1907452340 -4.75E-10

  *** SCF run converged in     6 steps ***


  Electronic density on regular grids:         -8.0000000366       -0.0000000366
  Core density on regular grids:                8.0000000005        0.0000000005
  Total charge density on r-space grids:       -0.0000000360
  Total charge density g-space grids:          -0.0000000360

  Overlap energy of the core charge distribution:               0.00000001040863
  Self energy of the core charge distribution:                -44.54061621428737
  Core Hamiltonian energy:                                     12.85182441947739
  Hartree energy:                                              18.68889500721938
  Exchange-correlation energy:                                 -4.19084845680220

  Total energy:                                               -17.19074523398417

  outer SCF iter =    1 RMS gradient =   0.46E-06 energy =        -17.1907452340
  outer SCF loop converged in   1 iterations or    6 steps


 ENERGY| Total FORCE_EVAL ( QS ) energy (a.u.):              -17.190745233986334

  @ DRIVER MODE: Received positions 
  @ DRIVER MODE: Message from server: STATUS
  @ DRIVER MODE: Message from server: GETFORCE
  @ DRIVER MODE: Returning v,forces,stress 
  @ DRIVER MODE: Message from server: STATUS
  @ DRIVER MODE: Message from server: STATUS
  @ DRIVER MODE: Message from server: POSDATA

 Number of electrons:                                                          8
 Number of occupied orbitals:                                                  4
 Number of molecular orbitals:                                                 4

 Number of orbital functions:                                                 23
 Number of independent orbital functions:                                     23

 Extrapolation method: ASPC


 SCF WAVEFUNCTION OPTIMIZATION

  ----------------------------------- OT ---------------------------------------
  Minimizer      : DIIS                : direct inversion
                                         in the iterative subspace
                                         using   7 DIIS vectors
                                         safer DIIS on
  Preconditioner : FULL_ALL            : diagonalization, state selective
  Precond_solver : DEFAULT
  stepsize       :    0.15000000                  energy_gap     :    0.08000000
  eps_taylor     :   0.10000E-15                  max_taylor     :             4
  ----------------------------------- OT ---------------------------------------

  Step     Update method      Time    Convergence         Total energy    Change
  ------------------------------------------------------------------------------
     1 OT DIIS     0.15E+00    0.5     0.00121016       -17.1921219496 -1.72E+01
     2 OT DIIS     0.15E+00    0.6     0.00054830       -17.1921336388 -1.17E-05
     3 OT DIIS     0.15E+00    0.6     0.00029592       -17.1921354275 -1.79E-06
     4 OT DIIS     0.15E+00    0.6     0.00001892       -17.1921359719 -5.44E-07
     5 OT DIIS     0.15E+00    0.6     0.00000434       -17.1921359755 -3.62E-09
     6 OT DIIS     0.15E+00    0.6     0.00000040       -17.1921359757 -1.89E-10

  *** SCF run converged in     6 steps ***


  Electronic density on regular grids:         -8.0000000459       -0.0000000459
  Core density on regular grids:                8.0000000005        0.0000000005
  Total charge density on r-space grids:       -0.0000000454
  Total charge density g-space grids:          -0.0000000454

  Overlap energy of the core charge distribution:               0.00000001678049
  Self energy of the core charge distribution:                -44.54061621428737
  Core Hamiltonian energy:                                     12.89889541655702
  Hartree energy:                                              18.65421244396806
  Exchange-correlation energy:                                 -4.20462763872709

  Total energy:                                               -17.19213597570889

  outer SCF iter =    1 RMS gradient =   0.40E-06 energy =        -17.1921359757
  outer SCF loop converged in   1 iterations or    6 steps


 ENERGY| Total FORCE_EVAL ( QS ) energy (a.u.):              -17.192135975710627

  @ DRIVER MODE: Received positions 
  @ DRIVER MODE: Message from server: STATUS
  @ DRIVER MODE: Message from server: GETFORCE
  @ DRIVER MODE: Returning v,forces,stress 
  @ DRIVER MODE: Message from server: STATUS
  @ DRIVER MODE: Message from server: STATUS
  @ DRIVER MODE: Message from server: POSDATA

 Number of electrons:                                                          8
 Number of occupied orbitals:                                                  4
 Number of molecular orbitals:                                                 4

 Number of orbital functions:                                                 23
 Number of independent orbital functions:                                     23

 Extrapolation method: ASPC


 SCF WAVEFUNCTION OPTIMIZATION

  ----------------------------------- OT ---------------------------------------
  Minimizer      : DIIS                : direct inversion
                                         in the iterative subspace
                                         using   7 DIIS vectors
                                         safer DIIS on
  Preconditioner : FULL_ALL            : diagonalization, state selective
  Precond_solver : DEFAULT
  stepsize       :    0.15000000                  energy_gap     :    0.08000000
  eps_taylor     :   0.10000E-15                  max_taylor     :             4
  ----------------------------------- OT ---------------------------------------

  Step     Update method      Time    Convergence         Total energy    Change
  ------------------------------------------------------------------------------
     1 OT DIIS     0.15E+00    0.5     0.00119666       -17.1920967298 -1.72E+01
     2 OT DIIS     0.15E+00    0.6     0.00043355       -17.1921098076 -1.31E-05
     3 OT DIIS     0.15E+00    0.6     0.00015441       -17.1921117131 -1.91E-06
     4 OT DIIS     0.15E+00    0.6     0.00003064       -17.1921118315 -1.18E-07
     5 OT DIIS     0.15E+00    0.6     0.00000392       -17.1921118378 -6.28E-09
     6 OT DIIS     0.15E+00    0.6     0.00000056       -17.1921118380 -1.66E-10
     7 OT DIIS     0.15E+00    0.6     0.00000005       -17.1921118380 -3.46E-12

  *** SCF run converged in     7 steps ***


  Electronic density on regular grids:         -8.0000000563       -0.0000000563
  Core density on regular grids:                8.0000000007        0.0000000007
  Total charge density on r-space grids:       -0.0000000556
  Total charge density g-space grids:          -0.0000000556

  Overlap energy of the core charge distribution:               0.00000003261865
  Self energy of the core charge distribution:                -44.54061621428737
  Core Hamiltonian energy:                                     12.95923196240167
  Hartree energy:                                              18.61100674277347
  Exchange-correlation energy:                                 -4.22173436150319

  Total energy:                                               -17.19211183799678

  outer SCF iter =    1 RMS gradient =   0.53E-07 energy =        -17.1921118380
  outer SCF loop converged in   1 iterations or    7 steps


 ENERGY| Total FORCE_EVAL ( QS ) energy (a.u.):              -17.192111837996830

  @ DRIVER MODE: Received positions 
  @ DRIVER MODE: Message from server: STATUS
  @ DRIVER MODE: Message from server: GETFORCE
  @ DRIVER MODE: Returning v,forces,stress 
  @ DRIVER MODE: Message from server: STATUS
  @ DRIVER MODE: Message from server: STATUS
  @ DRIVER MODE: Message from server: POSDATA

 Number of electrons:                                                          8
 Number of occupied orbitals:                                                  4
 Number of molecular orbitals:                                                 4

 Number of orbital functions:                                                 23
 Number of independent orbital functions:                                     23

 Extrapolation method: ASPC


 SCF WAVEFUNCTION OPTIMIZATION

  ----------------------------------- OT ---------------------------------------
[...]
     1 OT DIIS     0.15E+00    0.5     0.00229886       -17.1886586866 -1.72E+01
     2 OT DIIS     0.15E+00    0.6     0.00091508       -17.1887032403 -4.46E-05
     3 OT DIIS     0.15E+00    0.6     0.00048903       -17.1887093323 -6.09E-06
     4 OT DIIS     0.15E+00    0.6     0.00004507       -17.1887107409 -1.41E-06
     5 OT DIIS     0.15E+00    0.6     0.00000891       -17.1887107597 -1.88E-08
     6 OT DIIS     0.15E+00    0.6     0.00000076       -17.1887107606 -8.76E-10
     7 OT DIIS     0.15E+00    0.6     0.00000010       -17.1887107606 -5.97E-12

  *** SCF run converged in     7 steps ***


  Electronic density on regular grids:         -8.0000000793       -0.0000000793
  Core density on regular grids:                7.9999999996       -0.0000000004
  Total charge density on r-space grids:       -0.0000000797
  Total charge density g-space grids:          -0.0000000797

  Overlap energy of the core charge distribution:               0.00000006442889
  Self energy of the core charge distribution:                -44.54061621428737
  Core Hamiltonian energy:                                     13.01738516482847
  Hartree energy:                                              18.57091881112878
  Exchange-correlation energy:                                 -4.23639858670686

  Total energy:                                               -17.18871076060809

  outer SCF iter =    1 RMS gradient =   0.10E-06 energy =        -17.1887107606
  outer SCF loop converged in   1 iterations or    7 steps


 ENERGY| Total FORCE_EVAL ( QS ) energy (a.u.):              -17.188710760608220

  @ DRIVER MODE: Received positions 
  @ DRIVER MODE: Message from server: STATUS
  @ DRIVER MODE: Message from server: GETFORCE
  @ DRIVER MODE: Returning v,forces,stress 
  @ DRIVER MODE: Message from server: STATUS
  @ DRIVER MODE: Message from server: STATUS
  @ DRIVER MODE: Message from server: POSDATA

 Number of electrons:                                                          8
 Number of occupied orbitals:                                                  4
 Number of molecular orbitals:                                                 4

 Number of orbital functions:                                                 23
 Number of independent orbital functions:                                     23

 Extrapolation method: ASPC


 SCF WAVEFUNCTION OPTIMIZATION

  ----------------------------------- OT ---------------------------------------
  Minimizer      : DIIS                : direct inversion
                                         in the iterative subspace
                                         using   7 DIIS vectors
                                         safer DIIS on
  Preconditioner : FULL_ALL            : diagonalization, state selective
  Precond_solver : DEFAULT
  stepsize       :    0.15000000                  energy_gap     :    0.08000000
  eps_taylor     :   0.10000E-15                  max_taylor     :             4
  ----------------------------------- OT ---------------------------------------

  Step     Update method      Time    Convergence         Total energy    Change
  ------------------------------------------------------------------------------
     1 OT DIIS     0.15E+00    0.5     0.00103268       -17.1893810721 -1.72E+01
     2 OT DIIS     0.15E+00    0.6     0.00040532       -17.1893907660 -9.69E-06
     3 OT DIIS     0.15E+00    0.6     0.00019976       -17.1893922537 -1.49E-06
     4 OT DIIS     0.15E+00    0.6     0.00001598       -17.1893924546 -2.01E-07
     5 OT DIIS     0.15E+00    0.6     0.00000334       -17.1893924568 -2.25E-09
     6 OT DIIS     0.15E+00    0.6     0.00000030       -17.1893924570 -1.20E-10

  *** SCF run converged in     6 steps ***


  Electronic density on regular grids:         -8.0000000822       -0.0000000822
  Core density on regular grids:                8.0000000000        0.0000000000
  Total charge density on r-space grids:       -0.0000000822
  Total charge density g-space grids:          -0.0000000822

  Overlap energy of the core charge distribution:               0.00000003404728
  Self energy of the core charge distribution:                -44.54061621428737
  Core Hamiltonian energy:                                     12.96916712313936
  Hartree energy:                                              18.60463331707762
  Exchange-correlation energy:                                 -4.22257671692814

  Total energy:                                               -17.18939245695125

  outer SCF iter =    1 RMS gradient =   0.30E-06 energy =        -17.1893924570
  outer SCF loop converged in   1 iterations or    6 steps


 ENERGY| Total FORCE_EVAL ( QS ) energy (a.u.):              -17.189392456952191

  @ DRIVER MODE: Received positions 
  @ DRIVER MODE: Message from server: STATUS
  @ DRIVER MODE: Message from server: GETFORCE
  @ DRIVER MODE: Returning v,forces,stress 
  @ DRIVER MODE: Message from server: STATUS
  @ DRIVER MODE: Message from server: STATUS
  @ DRIVER MODE: Message from server: POSDATA

 Number of electrons:                                                          8
 Number of occupied orbitals:                                                  4
 Number of molecular orbitals:                                                 4

 Number of orbital functions:                                                 23
 Number of independent orbital functions:                                     23

 Extrapolation method: ASPC


 SCF WAVEFUNCTION OPTIMIZATION

  ----------------------------------- OT ---------------------------------------
  Minimizer      : DIIS                : direct inversion
                                         in the iterative subspace
                                         using   7 DIIS vectors
                                         safer DIIS on
  Preconditioner : FULL_ALL            : diagonalization, state selective
  Precond_solver : DEFAULT
  stepsize       :    0.15000000                  energy_gap     :    0.08000000
  eps_taylor     :   0.10000E-15                  max_taylor     :             4
  ----------------------------------- OT ---------------------------------------

  Step     Update method      Time    Convergence         Total energy    Change
  ------------------------------------------------------------------------------
     1 OT DIIS     0.15E+00    0.5     0.00123407       -17.1892451950 -1.72E+01
     2 OT DIIS     0.15E+00    0.6     0.00057277       -17.1892569326 -1.17E-05
     3 OT DIIS     0.15E+00    0.6     0.00028813       -17.1892588024 -1.87E-06
     4 OT DIIS     0.15E+00    0.6     0.00001848       -17.1892593507 -5.48E-07
     5 OT DIIS     0.15E+00    0.6     0.00000418       -17.1892593542 -3.52E-09
     6 OT DIIS     0.15E+00    0.6     0.00000041       -17.1892593544 -1.91E-10

  *** SCF run converged in     6 steps ***


  Electronic density on regular grids:         -8.0000000826       -0.0000000826
  Core density on regular grids:                8.0000000006        0.0000000006
  Total charge density on r-space grids:       -0.0000000819
  Total charge density g-space grids:          -0.0000000819

  Overlap energy of the core charge distribution:               0.00000002150133
  Self energy of the core charge distribution:                -44.54061621428737
  Core Hamiltonian energy:                                     12.92222978019230
  Hartree energy:                                              18.63821365264011
  Exchange-correlation energy:                                 -4.20908659445971

  Total energy:                                               -17.18925935441333

  outer SCF iter =    1 RMS gradient =   0.41E-06 energy =        -17.1892593544
  outer SCF loop converged in   1 iterations or    6 steps


 ENERGY| Total FORCE_EVAL ( QS ) energy (a.u.):              -17.189259354415132

  @ DRIVER MODE: Received positions 
  @ DRIVER MODE: Message from server: STATUS
  @ DRIVER MODE: Message from server: EXIT
  @DRIVER MODE:  Socket disconnected, time to exit. 

 -------------------------------------------------------------------------------
 -                                                                             -
 -                                DBCSR STATISTICS                             -
 -                                                                             -
 -------------------------------------------------------------------------------
 COUNTER                                    TOTAL       BLAS       SMM       ACC
 flops    13 x     5 x     4               123240       0.0%    100.0%      0.0%
 flops     5 x    13 x     4               123240       0.0%    100.0%      0.0%
 flops     4 x     4 x     4               132608       0.0%    100.0%      0.0%
 flops     5 x     5 x     4               142200       0.0%    100.0%      0.0%
 flops     5 x     4 x     4               301440       0.0%    100.0%      0.0%
 flops    13 x    13 x     4               320424       0.0%    100.0%      0.0%
 flops    13 x     4 x     4               391872       0.0%    100.0%      0.0%
 flops     5 x     4 x     5               520800       0.0%    100.0%      0.0%
 flops     4 x     4 x    23               558624       0.0%    100.0%      0.0%
 flops    13 x     4 x     5               677040       0.0%    100.0%      0.0%
 flops     5 x     4 x    13               677040       0.0%    100.0%      0.0%
 flops     5 x     4 x    23               772800       0.0%    100.0%      0.0%
 flops    13 x     4 x    13               880152       0.0%    100.0%      0.0%
 flops    13 x     4 x    23              1004640       0.0%    100.0%      0.0%
 flops inhomo. stacks                           0       0.0%      0.0%      0.0%
 flops total                         6.626120E+06       0.0%    100.0%      0.0%
 flops max/rank                      6.626120E+06       0.0%    100.0%      0.0%
 matmuls inhomo. stacks                         0       0.0%      0.0%      0.0%
 matmuls total                              13162       0.0%    100.0%      0.0%
 number of processed stacks                 10972       0.0%    100.0%      0.0%
 average stack size                                     0.0       1.2       0.0
 marketing flops                     6.939872E+06
 -------------------------------------------------------------------------------
 # multiplications                           4072
 max memory usage/rank             255.463424E+06
 # max total images/rank                        1
 # max 3D layers                                1
 # MPI messages exchanged                       0
 MPI messages size (bytes):
  total size                         0.000000E+00
  min size                           0.000000E+00
  max size                           0.000000E+00
  average size                       0.000000E+00
 MPI breakdown and total messages size (bytes):
             size <=      128                   0                        0
       128 < size <=     8192                   0                        0
      8192 < size <=    32768                   0                        0
     32768 < size <=   131072                   0                        0
    131072 < size <=  4194304                   0                        0
   4194304 < size <= 16777216                   0                        0
  16777216 < size                               0                        0
 -------------------------------------------------------------------------------

 MEMORY| Estimated peak process memory [MiB]                                 244

 -------------------------------------------------------------------------------
 -                                                                             -
 -                           R E F E R E N C E S                               -
 -                                                                             -
 -------------------------------------------------------------------------------
 
 CP2K version 7.1, the CP2K developers group (2019).
 CP2K is freely available from https://www.cp2k.org/ .

 Kapil, V; VandeVondele, J; Ceriotti, M. 
 JOURNAL OF CHEMICAL PHYSICS, 144 (5), 054111 (2016). 
 Accurate molecular dynamics and nuclear quantum effects at low cost by
 multiple steps in real and imaginary time: Using density functional
 theory to accelerate wavefunction methods.
 https://dx.doi.org/10.1063/1.4941091

 Schuett, Ole; Messmer, Peter; Hutter, Juerg; VandeVondele, Joost. 
 Electronic Structure Calculations on Graphics Processing Units, John
 Wiley & Sons, Ltd, 173-190 (2016). 
 GPU-Accelerated Sparse Matrix-Matrix Multiplication for
 Linear Scaling Density Functional Theory.
 https://dx.doi.org/10.1002/9781118670712.ch8

 Borstnik, U; VandeVondele, J; Weber, V; Hutter, J. 
 PARALLEL COMPUTING, 40 (5-6), 47-58 (2014). 
 Sparse matrix multiplication: The distributed block-compressed sparse
 row library.
 https://dx.doi.org/10.1016/j.parco.2014.03.012

 Ceriotti, M; More, J; Manolopoulos, DE. 
 COMPUTER PHYSICS COMMUNICATIONS, 185 (3), 1019-1026 (2014). 
 i-PI: A Python interface for ab initio path integral molecular dynamics
 simulations.
 https://dx.doi.org/10.1016/j.cpc.2013.10.027

 Hutter, J; Iannuzzi, M; Schiffmann, F; VandeVondele, J. 
 WIREs Comput Mol Sci., 4 (1), 15-25 (2014). 
 CP2K: atomistic simulations of condensed matter systems.
 https://dx.doi.org/10.1002/wcms.1159

 Krack, M. 
 THEORETICAL CHEMISTRY ACCOUNTS, 114 (1-3), 145-152 (2005). 
 Pseudopotentials for H to Kr optimized for gradient-corrected
 exchange-correlation functionals.
 https://dx.doi.org/10.1007/s00214-005-0655-y

 VandeVondele, J; Krack, M; Mohamed, F; Parrinello, M; Chassaing, T;
 Hutter, J. COMPUTER PHYSICS COMMUNICATIONS, 167 (2), 103-128 (2005). 
 QUICKSTEP: Fast and accurate density functional calculations using a
 mixed Gaussian and plane waves approach.
 https://dx.doi.org/10.1016/j.cpc.2004.12.014

 Frigo, M; Johnson, SG. 
 PROCEEDINGS OF THE IEEE, 93 (2), 216-231 (2005). 
 The design and implementation of FFTW3.
 https://dx.doi.org/10.1109/JPROC.2004.840301

 Kolafa, J. 
 JOURNAL OF COMPUTATIONAL CHEMISTRY, 25 (3), 335-342 (2004). 
 Time-reversible always stable predictor-corrector method for molecular dynamics of polarizable molecules.
 https://dx.doi.org/10.1002/jcc.10385

 VandeVondele, J; Hutter, J. 
 JOURNAL OF CHEMICAL PHYSICS, 118 (10), 4365-4369 (2003). 
 An efficient orbital transformation method for electronic structure
 calculations.
 https://dx.doi.org/10.1063/1.1543154

 Hartwigsen, C; Goedecker, S; Hutter, J. 
 PHYSICAL REVIEW B, 58 (7), 3641-3662 (1998). 
 Relativistic separable dual-space Gaussian pseudopotentials from H to Rn.
 https://dx.doi.org/10.1103/PhysRevB.58.3641

 Lippert, G; Hutter, J; Parrinello, M. 
 MOLECULAR PHYSICS, 92 (3), 477-487 (1997). 
 A hybrid Gaussian and plane wave density functional scheme.
 https://dx.doi.org/10.1080/002689797170220

 Goedecker, S; Teter, M; Hutter, J. 
 PHYSICAL REVIEW B, 54 (3), 1703-1710 (1996). 
 Separable dual-space Gaussian pseudopotentials.
 https://dx.doi.org/10.1103/PhysRevB.54.1703

 BECKE, AD. PHYSICAL REVIEW A, 38 (6), 3098-3100 (1988). 
 DENSITY-FUNCTIONAL EXCHANGE-ENERGY APPROXIMATION WITH CORRECT
 ASYMPTOTIC-BEHAVIOR.
 https://dx.doi.org/10.1103/PhysRevA.38.3098

 LEE, CT; YANG, WT; PARR, RG. 
 PHYSICAL REVIEW B, 37 (2), 785-789 (1988). 
 DEVELOPMENT OF THE COLLE-SALVETTI CORRELATION-ENERGY FORMULA INTO A
 FUNCTIONAL OF THE ELECTRON-DENSITY.
 https://dx.doi.org/10.1103/PhysRevB.37.785


 -------------------------------------------------------------------------------
 -                                                                             -
 -                                T I M I N G                                  -
 -                                                                             -
 -------------------------------------------------------------------------------
 SUBROUTINE                       CALLS  ASD         SELF TIME        TOTAL TIME
                                MAXIMUM       AVERAGE  MAXIMUM  AVERAGE  MAXIMUM
 CP2K                                 1  1.0    0.233    0.233  138.698  138.698
 run_driver                           1  2.0    0.012    0.012  137.977  137.977
 qs_forces                           27  3.0    0.145    0.145  129.926  129.926
 qs_energies                         27  4.0    0.173    0.173  113.695  113.695
 scf_env_do_scf                      27  5.0    0.004    0.004  109.735  109.735
 rebuild_ks_matrix                  210  7.6    0.001    0.001  102.561  102.561
 qs_ks_build_kohn_sham_matrix       210  8.6    0.197    0.197  102.560  102.560
 scf_env_do_scf_inner_loop          183  6.0    0.171    0.171   95.827   95.827
 qs_ks_update_qs_env                210  7.0    0.003    0.003   86.749   86.749
 qs_vxc_create                      210  9.6    0.180    0.180   78.010   78.010
 xc_vxc_pw_create                   210 10.6   13.093   13.093   77.830   77.830
 pw_transfer                       4017 11.4    0.580    0.580   69.351   69.351
 fft_wrap_pw1pw2                   3597 12.4    0.062    0.062   67.734   67.734
 fft_wrap_pw1pw2_130               2337 13.5    4.303    4.303   65.722   65.722
 fft3d_s                           3598 14.4   40.521   40.521   40.539   40.539
 xc_rho_set_and_dset_create         210 11.6    4.745    4.745   33.361   33.361
 qs_rho_update_rho                  210  7.1    0.002    0.002   18.638   18.638
 calculate_rho_elec                 210  8.1    3.825    3.825   18.636   18.636
 qs_ks_update_qs_env_forces          27  4.0    0.000    0.000   15.822   15.822
 density_rs2pw                      210  9.1    0.023    0.023   14.633   14.633
 init_scf_loop                       27  6.0    0.003    0.003   13.883   13.883
 pw_gather_s                       1707 13.9   12.925   12.925   12.925   12.925
 sum_up_and_integrate               210  9.6    0.405    0.405   10.296   10.296
 integrate_v_rspace                 210 10.6    0.902    0.902    9.890    9.890
 pw_scatter_s                      1890 14.9    9.724    9.724    9.724    9.724
 potential_pw2rs                    210 11.6    0.072    0.072    8.815    8.815
 xc_functional_eval                 420 12.6    0.006    0.006    7.793    7.793
 pw_poisson_solve                   210  9.6    5.534    5.534    7.204    7.204
 readbuffer_s                       135  3.0    6.868    6.868    6.868    6.868
 qs_scf_new_mos                     183  7.0    0.002    0.002    5.665    5.665
 qs_scf_loop_do_ot                  183  8.0    0.002    0.002    5.663    5.663
 dbcsr_multiply_generic            4072 11.8    0.233    0.233    5.559    5.559
 ot_scf_mini                        183  9.0    0.006    0.006    5.384    5.384
 pw_copy                           2601 12.1    4.529    4.529    4.529    4.529
 lyp_lda_eval                       210 13.6    4.041    4.041    4.041    4.041
 ot_mini                            183 10.0    0.002    0.002    3.898    3.898
 xb88_lda_eval                      210 13.6    3.746    3.746    3.746    3.746
 qs_ot_get_derivative               183 11.0    0.003    0.003    3.141    3.141
 pw_spline2_deriv_g                1260 12.1    3.024    3.024    3.024    3.024
 -------------------------------------------------------------------------------

 The number of warnings for this run is : 1
 
 -------------------------------------------------------------------------------
  **** **** ******  **  PROGRAM ENDED AT                 2020-06-17 15:46:04.213
 ***** ** ***  *** **   PROGRAM RAN ON                      eszter-Surfbook-A13B
 **    ****   ******    PROGRAM RAN BY                                    eszter
 ***** **    ** ** **   PROGRAM PROCESS ID                                 18149
  **** **  *******  **  PROGRAM STOPPED IN /home/eszter/I-PY/pimd-tutorial/exerc
                                           ises/day-1/ex-2
