#Bead    Energy (eV)
0     0.5908861587292017
1     0.5912866117214162
2     0.5920830287842944
3     0.5932664280254888
4     0.5948233308449534
5     0.5967357671120589
6     0.5989813015750958
7     0.6015330969427957
8     0.6043600312871046
9     0.6074268884336524
10     0.6106946396363514
11     0.6141208327861432
12     0.6176601015496278
13     0.6212648011548094
14     0.6248857700836682
15     0.6284732080959523
16     0.6319776512858769
17     0.6353510149986752
18     0.6385476664167224
19     0.6415254813824823
20     0.6442468356839398
21     0.6466794802707704
22     0.648797253295623
23     0.6505805894836403
24     0.652016798667876
25     0.6531000994752149
26     0.6538314097149377
27     0.6542179105084308
28     0.6542724150209256
29     0.65401258349924
30     0.6534600332630562
31     0.652639394927992
32     0.6515773645805766
33     0.6503017964496322
34     0.6488408727525561
35     0.6472223778834837
36     0.645473094092686
37     0.6436183261839807
38     0.6416815542991549
39     0.6396842070367831
40     0.6376455421698595
41     0.6355826191027315
42     0.6335103457689139
43     0.6314415826041729
44     0.6293872872400611
45     0.6273566853255746
46     0.6253574550131582
47     0.6233959150187629
48     0.621477208436566
49     0.6196054766396307
50     0.6177840194448873
51     0.6160154393089895
52     0.6143017685790175
53     0.6126445797698351
54     0.6110450795599619
55     0.6095041876471624
56     0.6080226019028258
57     0.6066008513975532
58     0.6052393389000932
59     0.6039383743947978
60     0.6026982010697383
61     0.6015190150848306
62     0.6004009802793954
63     0.5993442388329198
64     0.5983489187321224
65     0.59741513876765
66     0.5965430116541995
67     0.5957326457548217
68     0.5949841457941407
69     0.5942976128687654
70     0.5936731439862071
71     0.5931108313172495
72     0.5926107612908781
73     0.5921730136319605
74     0.5917976604130958
75     0.5914847651684919
76     0.5912343820998804
77     0.5910465553994497
78     0.5909213186980911
79     0.5908586946490869
