#Bead    Energy (eV)
0     0.590845384274853
1     0.591242878023949
2     0.5920465167631477
3     0.5932302733417801
4     0.5947927383832639
5     0.596704738198927
6     0.5989586953621399
7     0.6015089109314109
8     0.6043384221569917
9     0.6074094578317605
10     0.6106815993976776
11     0.6141189693158223
12     0.6176636532241883
13     0.6212698506485267
14     0.6248938352663804
15     0.6284811013087915
16     0.6319962756387749
17     0.6353671923221473
18     0.6385668876069553
19     0.6415447448042165
20     0.6442652841403074
21     0.6466996040283071
22     0.6488154413253805
23     0.6505982219654104
24     0.6520316800357104
25     0.6531107802908561
26     0.6538381213048159
27     0.6542208646576319
28     0.65427156295482
29     0.6540077160001745
30     0.6534495302404495
31     0.6526241541776602
32     0.6515590385058542
33     0.6502791360475968
34     0.6488144252892992
35     0.64719013379002
36     0.645438278950997
37     0.6435826036566887
38     0.641645338682833
39     0.63964203463148
40     0.6376033744305633
41     0.635540131304789
42     0.6334676432393297
43     0.6314001604282646
44     0.6293424314172467
45     0.6273113611879823
46     0.6253095052115923
47     0.6233522689812194
48     0.6214338165676301
49     0.6195592635836437
50     0.6177398620206086
51     0.615970530400753
52     0.6142590885665288
53     0.6126015626783062
54     0.6110008000372756
55     0.6094597579205214
56     0.6079809339569522
57     0.6065581449873043
58     0.6051969604474841
59     0.6038976118398143
60     0.60265895039394
61     0.6014796078059611
62     0.6003621820801959
63     0.5993029242412603
64     0.5983106880728137
65     0.5973768798539372
66     0.5965037156080772
67     0.595693742375792
68     0.5949454448315705
69     0.5942602553869778
70     0.5936367265093118
71     0.59307149975755
72     0.5925735972406267
73     0.5921368323244492
74     0.5917598429829227
75     0.5914474133288978
76     0.5911967975588857
77     0.5910086515175303
78     0.5908849269927755
79     0.5908213582836059
