#Bead    Energy (eV)
0     0.6505827608614363
