#Bead    Energy (eV)
0     0.6099210091280085
1     0.6107417129035733
2     0.6123523747553932
3     0.6146913055422606
4     0.6176672375903108
5     0.6211617287991036
6     0.6250328962223357
7     0.6291207211415983
8     0.6332540175769278
9     0.637258913608358
10     0.6409683937574521
11     0.6442321491178662
12     0.6469257538495115
13     0.6489581054266015
14     0.6502761801760413
15     0.6508664693977846
16     0.6507529247152485
17     0.6499917581084249
18     0.6486638969487577
19     0.6468661867982417
20     0.6447025095957888
21     0.6422758460970978
22     0.6396820143115354
23     0.6370054457205423
24     0.6343170041983944
25     0.6316735750485235
26     0.629118985677331
27     0.6266857661327697
28     0.6243972948586768
29     0.6222699686229605
30     0.6203151518861799
31     0.6185407728932505
32     0.6169525253035735
33     0.6155546979865117
34     0.6143506923215224
35     0.613343301084332
36     0.6125348227156027
37     0.6119270753901783
38     0.6115213624187255
39     0.6113184275782758
