#Bead    Energy (eV)
0     0.5909982141580981
1     0.5925910331144739
2     0.5957046990496287
3     0.6001953010546319
4     0.6058481117473732
5     0.6123816875018043
6     0.6194571975775096
7     0.6266948830728482
8     0.6336983288578081
9     0.6400852269558983
10     0.6455209648115944
11     0.6497494889044808
12     0.6526153748821057
13     0.6540724194751824
14     0.6541771221369291
15     0.6530691048997508
16     0.650943451708177
17     0.6480211305338738
18     0.6445229237435552
19     0.6406502888887574
20     0.6365741829861314
21     0.6324310111118613
22     0.6283238425545109
23     0.6243267857533278
24     0.620490710232827
25     0.6168490324380612
26     0.6134228118622519
27     0.610224822272334
28     0.607262563988344
29     0.604540366354895
30     0.6020607708693129
31     0.5998253824126056
32     0.5978353559842007
33     0.5960916480046169
34     0.594595124818584
35     0.5933465912947099
36     0.5923467796717761
37     0.5915963227021556
38     0.5910957244438957
39     0.5908453354638681
