#Bead    Energy (eV)
0     0.590888265664242
1     0.5912886784943733
2     0.5920850158370303
3     0.5932682970048133
4     0.5948250452245629
5     0.5967372928265928
6     0.5989826076667027
7     0.601534156218289
8     0.6043608209706735
9     0.6074273908048093
10     0.610694842628482
11     0.6141207305174317
12     0.6176596947592575
13     0.6212640975038133
14     0.6248847842940306
15     0.6284719619030212
16     0.6319761731741566
17     0.6353493397152065
18     0.6385458342514132
19     0.6415235372394571
20     0.6442448279635626
21     0.646677459607783
22     0.6487952712078865
23     0.6505786969907023
24     0.6520150449501108
25     0.653098530633571
26     0.6538300676919363
27     0.654216832216716
28     0.6542716317096341
29     0.6540121203733228
30     0.6534599093523296
31     0.652639623189848
32     0.651577952206281
33     0.6503027453368219
34     0.6488421800963636
35     0.6472240368469818
36     0.6454750945132869
37     0.6436206552790702
38     0.6416841973410929
39     0.6396871479709791
40     0.6376487641609996
41     0.6355861050051566
42     0.6335140785135547
43     0.6314455455034641
44     0.6293914642219895
45     0.6273610610939531
46     0.6253620151555805
47     0.6234006460643272
48     0.6214820978771374
49     0.6196105129155274
50     0.6177891919097783
51     0.6160207381814253
52     0.614307184879978
53     0.6126501052579366
54     0.6110507066619189
55     0.6095099093899573
56     0.6080284118497933
57     0.606606743588227
58     0.6052453077936669
59     0.6039444148207367
60     0.602704308182357
61     0.6015251843216904
62     0.6004072073263657
63     0.5993505195918941
64     0.5983552492940863
65     0.597421515389165
66     0.5965494307362493
67     0.5957391038240575
68     0.5949906394874614
69     0.5943041389195148
70     0.5936796992126181
71     0.5931174126109668
72     0.592617365606705
73     0.5921796379794451
74     0.5918043018482261
75     0.5914914207855811
76     0.5912410490253771
77     0.5910532307844935
78     0.5909279997125009
79     0.5908653784751736
