#Bead    Energy (eV)
0     0.589301831535524
1     0.5897112818272886
2     0.5905255460888933
3     0.5917354570972517
4     0.5933273018116361
5     0.595282816215065
6     0.5975792147343889
7     0.600189233054066
8     0.6030812401567015
9     0.6062194178768131
10     0.6095640414277683
11     0.6130718635706566
12     0.6166966196997
13     0.6203896706807484
14     0.6241007766045193
15     0.6277789907052763
16     0.6313736559660247
17     0.6348354825211348
18     0.63811765328156
19     0.6411769106667765
20     0.6439745922478165
21     0.6464775370713217
22     0.6486588295388963
23     0.650498332057522
24     0.6519829781609238
25     0.6531068153488984
26     0.6538707932493264
27     0.6542823096681524
28     0.6543545641899634
29     0.6541057419018372
30     0.6535580945049684
31     0.6527369609637322
32     0.6516697890761088
33     0.650385196937412
34     0.6489121122590723
35     0.6472790259999983
36     0.6455133742310998
37     0.643641047396001
38     0.641686037795431
39     0.6396702074145004
40     0.63761317331786
41     0.6355322827926807
42     0.6334426675986254
43     0.6313573519748664
44     0.629287409692236
45     0.6272421357615923
46     0.6252292463754392
47     0.6232550696442266
48     0.621324737941516
49     0.6194423638314792
50     0.6176112074309209
51     0.6158338236547134
52     0.6141121931115947
53     0.6124478353109047
54     0.6108419013243169
55     0.6092952569281556
56     0.6078085477809184
57     0.6063822537666362
58     0.6050167303363695
59     0.6037122429460582
60     0.6024689934455935
61     0.6012871383698096
62     0.6001668058115888
63     0.5991081031082767
64     0.5981111277293214
65     0.597175966357255
66     0.5963027033302465
67     0.5954914217918733
68     0.5947422014595803
69     0.5940551193947237
70     0.5934302487950152
71     0.5928676615626204
72     0.5923674233629824
73     0.5919295938039811
74     0.5915542244137765
75     0.5912413594380386
76     0.59099103621102
77     0.590803280653768
78     0.5906781082180488
79     0.5906155237980176
