6
# CELL(abcABC):  200.00000   200.00000   200.00000    90.00000    90.00000    90.00000  Step:          32  Bead:       0 x_centroid{angstrom}  cell{atomic_unit}
       H  1.63089e+00  1.36267e+00  1.15180e+00
       C  8.44945e-01  7.89704e-01  6.62032e-01
       H  1.29316e+00  6.34755e-02 -1.44336e-02
       H  2.02556e-01  1.46367e+00  9.72761e-02
       H  2.53301e-01  2.69000e-01  1.41347e+00
       H  5.82909e+00  2.17935e+00  1.85263e+00
