288
# CELL(abcABC):   13.52118    15.61292    14.72000    90.00000    90.00000    90.00000  Traj: x_centroid{angstrom} Step:           0  Bead:       0 
       O  1.06580e+00  1.15019e+00  1.33084e+00
       H  1.28575e+00  1.05807e+00  3.17397e-01
       H  2.54923e-01  1.83998e+00  1.39852e+00
       O  3.19081e+00  2.55648e+00  2.25530e+00
       H  2.45923e+00  2.19283e+00  1.92963e+00
       H  3.91588e+00  1.87959e+00  2.10882e+00
       O  1.07116e+00  1.46829e+00  5.86383e+00
       H  1.29321e+00  6.36404e-01  5.49099e+00
       H  1.88260e+00  1.86037e+00  5.48373e+00
       O  3.33096e+00  2.93580e+00  5.01387e+00
       H  3.14816e+00  3.12735e+00  4.02336e+00
       H  4.08865e+00  2.39948e+00  5.15283e+00
       O  3.49640e+00  5.00328e+00  1.07012e+00
       H  2.58333e+00  5.50880e+00  1.48003e+00
       H  3.43220e+00  4.17165e+00  1.35323e+00
       O  1.21501e+00  6.24963e+00  2.27207e+00
       H  5.54159e-01  5.82302e+00  1.81607e+00
       H  1.17545e+00  7.14604e+00  1.91398e+00
       O  3.28756e+00  5.55481e+00  6.07087e+00
       H  3.25956e+00  5.52759e+00  6.99013e+00
       H  3.25150e+00  4.77904e+00  5.59791e+00
       O  8.89892e-01  6.58377e+00  5.04668e+00
       H  1.11096e+00  6.48420e+00  4.06476e+00
       H  1.67080e+00  6.09609e+00  5.39983e+00
       O  8.92183e-01  8.74746e+00  1.30484e+00
       H  1.02837e+00  9.04791e+00  4.39429e-01
       H  1.47307e+00  9.29746e+00  1.74218e+00
       O  3.14522e+00  1.02738e+01  2.31880e+00
       H  2.96501e+00  1.01622e+01  3.20946e+00
       H  3.22246e+00  1.10826e+01  1.87435e+00
       O  1.01443e+00  9.01706e+00  6.25847e+00
       H  1.16418e-01  9.44204e+00  6.26901e+00
       H  9.95608e-01  8.19589e+00  5.78199e+00
       O  3.25032e+00  1.02979e+01  5.00110e+00
       H  2.46071e+00  9.99383e+00  5.48630e+00
       H  3.93596e+00  9.85719e+00  5.62182e+00
       O  3.54201e+00  1.28220e+01  1.47904e+00
       H  3.48439e+00  1.27387e+01  5.01481e-01
       H  2.79664e+00  1.33209e+01  1.58435e+00
       O  1.14543e+00  1.40971e+01  2.22541e+00
       H  1.20503e+00  1.43545e+01  3.17016e+00
       H  1.20408e+00  1.49486e+01  1.73920e+00
       O  3.55575e+00  1.28586e+01  5.79123e+00
       H  3.34837e+00  1.27347e+01  6.78166e+00
       H  3.39724e+00  1.20148e+01  5.51619e+00
       O  1.27957e+00  1.42288e+01  5.00563e+00
       H  3.53312e-01  1.38323e+01  5.40326e+00
       H  1.94603e+00  1.35623e+01  5.55667e+00
       O  5.40797e+00  1.18388e+00  1.50879e+00
       H  5.58039e+00  2.05539e-01  1.65695e+00
       H  6.19049e+00  1.66329e+00  1.82487e+00
       O  7.60518e+00  2.32734e+00  2.44799e+00
       H  7.73212e+00  2.34316e+00  3.47766e+00
       H  8.42665e+00  2.01052e+00  2.06992e+00
       O  5.42014e+00  1.25752e+00  5.77361e+00
       H  5.28449e+00  1.15037e+00  6.80436e+00
       H  6.29238e+00  1.77533e+00  5.76904e+00
       O  7.76512e+00  2.62760e+00  5.32529e+00
       H  8.47480e+00  2.13158e+00  5.60384e+00
       H  7.95003e+00  3.53459e+00  5.70898e+00
       O  7.87174e+00  4.87177e+00  1.17940e+00
       H  7.18194e+00  5.38127e+00  1.53225e+00
       H  7.71020e+00  4.17447e+00  1.70074e+00
       O  5.64642e+00  6.48488e+00  2.32865e+00
       H  4.83107e+00  5.97345e+00  2.03338e+00
       H  5.67718e+00  7.34759e+00  1.81731e+00
       O  7.88915e+00  5.17370e+00  6.09783e+00
       H  7.28256e+00  5.67247e+00  5.70902e+00
       H  8.73070e+00  5.50404e+00  5.84118e+00
       O  5.51410e+00  6.61778e+00  5.05570e+00
       H  5.57239e+00  6.46645e+00  4.01445e+00
       H  4.75527e+00  6.09669e+00  5.45739e+00
       O  5.73002e+00  9.14014e+00  1.15789e+00
       H  4.98899e+00  9.56609e+00  1.35345e+00
       H  6.33908e+00  9.60258e+00  1.73606e+00
       O  7.85530e+00  1.03739e+01  2.61425e+00
       H  8.40285e+00  9.71220e+00  2.14559e+00
       H  8.04899e+00  1.11032e+01  2.09467e+00
       O  5.41741e+00  9.10882e+00  6.21529e+00
       H  5.52750e+00  8.12355e+00  5.75010e+00
       H  6.29217e+00  9.49282e+00  6.01322e+00
       O  7.78353e+00  1.02831e+01  5.36386e+00
       H  7.74174e+00  1.01732e+01  4.36069e+00
       H  7.68608e+00  1.11447e+01  5.60124e+00
       O  8.22295e+00  1.27593e+01  1.54556e+00
       H  7.43287e+00  1.31408e+01  1.65338e+00
       H  8.73967e+00  1.34591e+01  1.97463e+00
       O  5.76810e+00  1.40881e+01  2.10457e+00
       H  5.85535e+00  1.42316e+01  2.92719e+00
       H  4.81748e+00  1.37781e+01  1.99911e+00
       O  7.92728e+00  1.29481e+01  5.92548e+00
       H  7.87789e+00  1.30148e+01  6.84140e+00
       H  7.26791e+00  1.34480e+01  5.65206e+00
       O  5.70865e+00  1.42816e+01  5.01247e+00
       H  5.06686e+00  1.37634e+01  5.37604e+00
       H  5.70219e+00  1.51717e+01  5.42604e+00
       O  9.90396e+00  1.31654e+00  1.47079e+00
       H  9.99625e+00  1.15085e+00  5.10272e-01
       H  1.02414e+01  5.18269e-01  1.86105e+00
       O  1.23282e+01  2.60896e+00  2.09049e+00
       H  1.21885e+01  2.84282e+00  3.02319e+00
       H  1.14354e+01  2.15878e+00  1.84791e+00
       O  1.00318e+01  1.16148e+00  5.81318e+00
       H  1.00341e+01  1.32870e+00  6.74092e+00
       H  1.07407e+01  1.80429e+00  5.54325e+00
       O  1.23352e+01  2.97452e+00  4.82222e+00
       H  1.29960e+01  2.44305e+00  5.27756e+00
       H  1.23131e+01  3.80563e+00  5.38101e+00
       O  1.23264e+01  5.15603e+00  1.16986e+00
       H  1.21446e+01  5.22271e+00  2.26890e-01
       H  1.23693e+01  4.20127e+00  1.34106e+00
       O  9.96400e+00  6.27100e+00  2.31320e+00
       H  9.23502e+00  5.60532e+00  1.96531e+00
       H  1.08148e+01  5.68980e+00  2.21262e+00
       O  1.22040e+01  5.47766e+00  6.28744e+00
       H  1.14490e+01  5.95222e+00  5.92338e+00
       H  1.31112e+01  5.80365e+00  5.89632e+00
       O  1.01291e+01  6.36381e+00  5.09618e+00
       H  1.00921e+01  6.64922e+00  4.05427e+00
       H  1.01606e+01  7.22128e+00  5.26926e+00
       O  1.04079e+01  8.87618e+00  1.61639e+00
       H  1.02856e+01  7.99324e+00  1.96412e+00
       H  1.10357e+01  9.40123e+00  2.17137e+00
       O  1.25178e+01  1.03544e+01  2.59359e+00
       H  1.29650e+01  9.79399e+00  1.95076e+00
       H  1.21496e+01  1.11048e+01  2.17609e+00
       O  1.00366e+01  8.89302e+00  6.01874e+00
       H  9.98966e+00  9.02730e+00  6.95399e+00
       H  9.31464e+00  9.38864e+00  5.84657e+00
       O  1.23671e+01  1.01312e+01  5.31950e+00
       H  1.23245e+01  1.02166e+01  4.35718e+00
       H  1.15954e+01  9.52413e+00  5.68574e+00
       O  1.23939e+01  1.27474e+01  1.30563e+00
       H  1.24112e+01  1.29738e+01  2.93479e-01
       H  1.32467e+01  1.31644e+01  1.61991e+00
       O  1.03916e+01  1.42974e+01  2.30416e+00
       H  1.04776e+01  1.42736e+01  3.23143e+00
       H  1.10159e+01  1.35081e+01  2.20824e+00
       O  1.27745e+01  1.28917e+01  6.16706e+00
       H  1.19569e+01  1.33516e+01  5.71749e+00
       H  1.24969e+01  1.19772e+01  6.00088e+00
       O  1.04723e+01  1.41722e+01  5.11298e+00
       H  9.57056e+00  1.36151e+01  5.48594e+00
       H  1.03094e+01  1.50329e+01  5.23166e+00
       O  8.80368e-01  1.36404e+00  8.71281e+00
       H  8.38348e-01  1.29054e+00  7.66558e+00
       H  1.65049e+00  2.01064e+00  8.81140e+00
       O  3.19561e+00  2.71359e+00  9.84804e+00
       H  3.54433e+00  3.13062e+00  1.06708e+01
       H  3.91064e+00  2.28081e+00  9.44554e+00
       O  9.73785e-01  1.41968e+00  1.31890e+01
       H  1.23027e-01  1.90439e+00  1.29636e+01
       H  1.06771e+00  5.76686e-01  1.26634e+01
       O  3.45716e+00  2.55095e+00  1.25955e+01
       H  2.57204e+00  2.22725e+00  1.30062e+01
       H  3.42815e+00  3.50508e+00  1.27765e+01
       O  3.34598e+00  5.14126e+00  8.56535e+00
       H  3.23115e+00  4.29168e+00  9.10135e+00
       H  4.15946e+00  5.59548e+00  8.92379e+00
       O  1.21640e+00  6.34651e+00  9.73403e+00
       H  4.38114e-01  5.76524e+00  9.58973e+00
       H  1.88818e+00  5.80919e+00  9.66609e+00
       O  3.62458e+00  5.28388e+00  1.31336e+01
       H  3.62943e+00  5.23469e+00  1.40629e+01
       H  2.79662e+00  5.87571e+00  1.28889e+01
       O  1.27759e+00  6.64948e+00  1.24756e+01
       H  1.22654e+00  6.74164e+00  1.15119e+01
       H  1.48698e+00  7.50502e+00  1.28127e+01
       O  8.77385e-01  8.93500e+00  8.91805e+00
       H  1.14291e+00  8.90001e+00  8.00251e+00
       H  1.07564e+00  8.00980e+00  9.09527e+00
       O  3.30190e+00  1.04540e+01  9.78810e+00
       H  2.52638e+00  9.91426e+00  9.64246e+00
       H  3.98993e+00  9.89304e+00  9.46149e+00
       O  1.42813e+00  9.09867e+00  1.33800e+01
       H  6.45869e-01  9.57426e+00  1.29655e+01
       H  2.18913e+00  9.50613e+00  1.32035e+01
       O  3.55901e+00  1.04657e+01  1.25527e+01
       H  3.39311e+00  1.04503e+01  1.16207e+01
       H  4.35284e+00  1.02349e+01  1.29588e+01
       O  3.37432e+00  1.28881e+01  8.67168e+00
       H  2.53759e+00  1.34868e+01  8.98626e+00
       H  3.37151e+00  1.20629e+01  9.19127e+00
       O  1.33964e+00  1.43381e+01  9.66687e+00
       H  5.33534e-01  1.37976e+01  9.82775e+00
       H  9.62740e-01  1.51491e+01  9.42665e+00
       O  3.39030e+00  1.30991e+01  1.33126e+01
       H  3.47234e+00  1.21441e+01  1.31183e+01
       H  4.32688e+00  1.35364e+01  1.31219e+01
       O  9.91282e-01  1.44994e+01  1.23620e+01
       H  1.25406e+00  1.43792e+01  1.14434e+01
       H  1.82789e+00  1.39392e+01  1.27321e+01
       O  5.25474e+00  1.34921e+00  8.51496e+00
       H  5.29747e+00  3.62390e-01  8.75197e+00
       H  6.04841e+00  1.75033e+00  8.93493e+00
       O  7.66154e+00  2.40517e+00  9.44693e+00
       H  7.83085e+00  2.34117e+00  1.04873e+01
       H  7.74625e+00  3.40737e+00  9.40022e+00
       O  5.57323e+00  1.21508e+00  1.34383e+01
       H  5.45174e+00  1.29420e+00  1.44653e+01
       H  4.84867e+00  1.74214e+00  1.31548e+01
       O  7.91029e+00  2.46640e+00  1.24438e+01
       H  7.11655e+00  1.99223e+00  1.27986e+01
       H  7.82467e+00  3.35143e+00  1.25607e+01
       O  7.63305e+00  5.04057e+00  8.89115e+00
       H  7.69881e+00  5.22279e+00  8.01675e+00
       H  8.23164e+00  5.58235e+00  9.30808e+00
       O  5.50789e+00  6.64402e+00  9.68241e+00
       H  5.56679e+00  6.58142e+00  1.05636e+01
       H  6.30421e+00  6.10659e+00  9.37333e+00
       O  7.92924e+00  5.19275e+00  1.32257e+01
       H  7.94057e+00  4.95231e+00  1.42221e+01
       H  8.69871e+00  5.94388e+00  1.29288e+01
       O  5.78623e+00  6.80054e+00  1.24503e+01
       H  5.00215e+00  6.23809e+00  1.26624e+01
       H  6.48463e+00  6.44046e+00  1.29354e+01
       O  5.78992e+00  9.24728e+00  8.81367e+00
       H  5.44304e+00  9.27475e+00  8.00940e+00
       H  5.73678e+00  8.35021e+00  9.04855e+00
       O  8.12033e+00  1.06661e+01  9.53839e+00
       H  8.14264e+00  1.06560e+01  1.05868e+01
       H  7.25875e+00  1.03059e+01  9.10702e+00
       O  6.05738e+00  9.58706e+00  1.32356e+01
       H  6.11151e+00  9.53334e+00  1.43597e+01
       H  5.98264e+00  8.69713e+00  1.30222e+01
       O  8.43922e+00  1.06465e+01  1.23446e+01
       H  7.57163e+00  1.01288e+01  1.26127e+01
       H  9.13782e+00  1.01794e+01  1.25707e+01
       O  7.76399e+00  1.33299e+01  8.64083e+00
       H  6.91858e+00  1.37622e+01  8.77340e+00
       H  7.73938e+00  1.25300e+01  9.10185e+00
       O  5.46185e+00  1.43783e+01  9.35903e+00
       H  5.55999e+00  1.43233e+01  1.03278e+01
       H  4.65316e+00  1.37909e+01  9.06351e+00
       O  8.04274e+00  1.32534e+01  1.35253e+01
       H  7.91358e+00  1.30886e+01  1.43791e+01
       H  8.25274e+00  1.22575e+01  1.31286e+01
       O  5.70437e+00  1.42016e+01  1.22208e+01
       H  6.43111e+00  1.37675e+01  1.24998e+01
       H  5.81614e+00  1.51070e+01  1.26745e+01
       O  9.92678e+00  1.39914e+00  8.52650e+00
       H  9.07278e+00  1.73616e+00  8.84316e+00
       H  1.06570e+01  1.91155e+00  9.05219e+00
       O  1.20712e+01  2.70232e+00  9.56869e+00
       H  1.28065e+01  2.08853e+00  9.28927e+00
       H  1.23513e+01  3.42077e+00  9.18974e+00
       O  1.02612e+01  1.40239e+00  1.34273e+01
       H  9.52939e+00  1.77785e+00  1.28656e+01
       H  1.03262e+01  4.90376e-01  1.29366e+01
       O  1.22643e+01  3.02311e+00  1.23550e+01
       H  1.18638e+01  3.06282e+00  1.14776e+01
       H  1.14562e+01  2.55485e+00  1.28348e+01
       O  1.23962e+01  5.16048e+00  8.95809e+00
       H  1.23520e+01  5.05649e+00  8.02086e+00
       H  1.16138e+01  5.67968e+00  9.20471e+00
       O  9.95102e+00  6.71146e+00  9.59337e+00
       H  9.92655e+00  6.75915e+00  1.06097e+01
       H  1.01932e+01  7.57932e+00  9.13887e+00
       O  1.24596e+01  5.51921e+00  1.33131e+01
       H  1.26384e+01  4.63048e+00  1.30250e+01
       H  1.33657e+01  5.91128e+00  1.30991e+01
       O  1.00443e+01  6.69194e+00  1.23935e+01
       H  1.06172e+01  6.07680e+00  1.26748e+01
       H  1.03209e+01  7.51245e+00  1.27961e+01
       O  1.01452e+01  9.29115e+00  8.61546e+00
       H  9.32536e+00  9.83490e+00  9.03720e+00
       H  1.08917e+01  9.75076e+00  9.18827e+00
       O  1.23554e+01  1.04740e+01  9.69500e+00
       H  1.28628e+01  9.92123e+00  9.22048e+00
       H  1.25766e+01  1.13723e+01  9.54934e+00
       O  1.03926e+01  9.25544e+00  1.34462e+01
       H  1.03738e+01  9.18475e+00  1.44450e+01
       H  1.11759e+01  9.63086e+00  1.31703e+01
       O  1.28370e+01  1.03546e+01  1.24165e+01
       H  1.27338e+01  1.03946e+01  1.14694e+01
       H  1.26511e+01  1.12816e+01  1.25445e+01
       O  1.25339e+01  1.30709e+01  9.05372e+00
       H  1.25753e+01  1.30655e+01  8.15643e+00
       H  1.14027e+01  1.33045e+01  9.19619e+00
       O  1.00753e+01  1.44335e+01  9.61290e+00
       H  9.29645e+00  1.39726e+01  9.19814e+00
       H  1.00746e+01  1.52150e+01  9.14008e+00
       O  1.24678e+01  1.28941e+01  1.32880e+01
       H  1.17618e+01  1.34879e+01  1.28624e+01
       H  1.31574e+01  1.34725e+01  1.31912e+01
       O  1.03449e+01  1.45240e+01  1.24100e+01
       H  1.02083e+01  1.44105e+01  1.14026e+01
       H  9.53176e+00  1.40309e+01  1.26999e+01
288
# CELL(abcABC):   13.52118    15.61292    14.72000    90.00000    90.00000    90.00000  Traj: x_centroid{angstrom} Step:         400  Bead:       0 
       O  9.23599e-01  1.29507e+00  1.38517e+00
       H  1.03369e+00  1.45024e+00  4.53806e-01
       H  2.63918e-01  1.88966e+00  1.80699e+00
       O  3.08266e+00  2.63935e+00  2.18312e+00
       H  2.36968e+00  1.99237e+00  1.85187e+00
       H  3.86214e+00  2.12232e+00  1.99290e+00
       O  1.28006e+00  1.29512e+00  5.84993e+00
       H  1.47366e+00  3.85482e-01  5.56111e+00
       H  1.87442e+00  1.86652e+00  5.35842e+00
       O  3.21220e+00  2.91169e+00  4.98797e+00
       H  3.02568e+00  2.77461e+00  4.08465e+00
       H  3.97058e+00  2.31625e+00  5.16895e+00
       O  3.42835e+00  5.16893e+00  1.11419e+00
       H  2.54775e+00  5.40481e+00  1.45809e+00
       H  3.51266e+00  4.24025e+00  1.43423e+00
       O  1.20433e+00  6.18112e+00  2.34126e+00
       H  4.90392e-01  5.54614e+00  2.12002e+00
       H  1.03962e+00  7.11070e+00  1.99012e+00
       O  3.39627e+00  5.51045e+00  6.08398e+00
       H  3.39744e+00  5.43092e+00  7.06134e+00
       H  3.38179e+00  4.63951e+00  5.75706e+00
       O  1.02887e+00  6.77198e+00  4.98227e+00
       H  1.19898e+00  6.38798e+00  4.09868e+00
       H  1.69836e+00  6.31608e+00  5.47447e+00
       O  1.03975e+00  8.64060e+00  1.69073e+00
       H  1.01237e+00  8.65812e+00  7.56748e-01
       H  1.81439e+00  9.23702e+00  1.88389e+00
       O  3.22999e+00  1.03375e+01  2.23907e+00
       H  3.13212e+00  1.03680e+01  3.18468e+00
       H  3.33405e+00  1.12497e+01  1.97506e+00
       O  1.22164e+00  9.14100e+00  6.25381e+00
       H  4.17704e-01  9.53707e+00  5.96648e+00
       H  1.17515e+00  8.22233e+00  5.83012e+00
       O  3.45496e+00  1.04113e+01  5.12017e+00
       H  2.77063e+00  1.01369e+01  5.73994e+00
       H  4.25048e+00  9.95247e+00  5.38010e+00
       O  3.24622e+00  1.29696e+01  1.46051e+00
       H  3.27153e+00  1.30054e+01  5.19641e-01
       H  2.37890e+00  1.33269e+01  1.65984e+00
       O  9.42908e-01  1.43406e+01  2.37463e+00
       H  9.17637e-01  1.44074e+01  3.34874e+00
       H  8.56731e-01  1.52743e+01  2.05915e+00
       O  3.50135e+00  1.30025e+01  5.82010e+00
       H  3.54638e+00  1.28489e+01  6.74151e+00
       H  3.48208e+00  1.20724e+01  5.52584e+00
       O  1.14710e+00  1.43229e+01  5.12542e+00
       H  4.13641e-01  1.39441e+01  5.56204e+00
       H  1.83540e+00  1.37304e+01  5.42493e+00
       O  5.32153e+00  1.00988e+00  1.32408e+00
       H  5.47592e+00  5.43014e-02  1.49820e+00
       H  6.04109e+00  1.43302e+00  1.80325e+00
       O  7.55462e+00  2.33797e+00  2.28277e+00
       H  7.50549e+00  2.47891e+00  3.25587e+00
       H  8.35461e+00  1.85255e+00  2.12348e+00
       O  5.40254e+00  1.26332e+00  5.60975e+00
       H  5.38323e+00  1.12068e+00  6.56010e+00
       H  6.11658e+00  1.90225e+00  5.46362e+00
       O  7.61452e+00  2.78711e+00  4.99598e+00
       H  8.57231e+00  2.59343e+00  5.24540e+00
       H  7.53284e+00  3.63810e+00  5.49355e+00
       O  7.68521e+00  5.26668e+00  1.44536e+00
       H  6.83108e+00  5.49030e+00  1.82417e+00
       H  7.64087e+00  4.31309e+00  1.65095e+00
       O  5.45486e+00  6.48763e+00  2.30974e+00
       H  4.89682e+00  6.03451e+00  1.61096e+00
       H  5.48425e+00  7.42010e+00  2.04911e+00
       O  7.71851e+00  5.07016e+00  6.19378e+00
       H  7.01897e+00  5.63378e+00  5.78267e+00
       H  8.55837e+00  5.49005e+00  5.87577e+00
       O  5.57138e+00  6.46919e+00  5.08981e+00
       H  5.60005e+00  6.46372e+00  4.08764e+00
       H  4.63524e+00  6.28863e+00  5.33098e+00
       O  5.44139e+00  9.14321e+00  1.29559e+00
       H  4.66162e+00  9.63863e+00  1.68884e+00
       H  6.27947e+00  9.36093e+00  1.80158e+00
       O  7.89461e+00  1.01973e+01  2.42421e+00
       H  8.66856e+00  9.66761e+00  2.10536e+00
       H  7.93147e+00  1.09865e+01  1.88268e+00
       O  5.62107e+00  9.09243e+00  6.09956e+00
       H  5.67361e+00  8.26100e+00  5.57331e+00
       H  6.45795e+00  9.48939e+00  5.80358e+00
       O  7.78715e+00  1.04461e+01  5.13606e+00
       H  7.81760e+00  1.04891e+01  4.13278e+00
       H  7.90396e+00  1.13184e+01  5.53910e+00
       O  8.11523e+00  1.28007e+01  1.22280e+00
       H  7.35817e+00  1.32207e+01  1.53334e+00
       H  8.86094e+00  1.33207e+01  1.51886e+00
       O  5.61473e+00  1.39198e+01  2.17670e+00
       H  5.66207e+00  1.41325e+01  3.11534e+00
       H  4.78882e+00  1.34449e+01  2.06670e+00
       O  8.08250e+00  1.31507e+01  6.05130e+00
       H  7.94902e+00  1.30481e+01  6.98524e+00
       H  7.17342e+00  1.33894e+01  5.72441e+00
       O  5.70449e+00  1.41326e+01  4.94332e+00
       H  4.89656e+00  1.36783e+01  5.25254e+00
       H  5.55264e+00  1.50223e+01  5.18361e+00
       O  9.98038e+00  1.43381e+00  1.35553e+00
       H  9.94633e+00  1.54390e+00  4.50355e-01
       H  1.01685e+01  4.96456e-01  1.48728e+00
       O  1.22756e+01  2.69302e+00  2.26598e+00
       H  1.21094e+01  2.62039e+00  3.22827e+00
       H  1.16511e+01  2.08280e+00  1.88288e+00
       O  9.94327e+00  1.68314e+00  5.67104e+00
       H  9.83403e+00  1.28541e+00  6.51820e+00
       H  1.08353e+01  2.02658e+00  5.70860e+00
       O  1.25190e+01  2.53361e+00  4.97392e+00
       H  1.33171e+01  2.13268e+00  5.40632e+00
       H  1.25396e+01  3.32652e+00  5.47566e+00
       O  1.23755e+01  5.24965e+00  1.23448e+00
       H  1.21561e+01  5.44503e+00  3.47507e-01
       H  1.21954e+01  4.30839e+00  1.45335e+00
       O  1.02679e+01  6.23386e+00  2.57409e+00
       H  9.57909e+00  5.71826e+00  2.16854e+00
       H  1.10916e+01  5.92338e+00  2.10944e+00
       O  1.24029e+01  5.16576e+00  6.09823e+00
       H  1.16268e+01  5.66764e+00  5.86309e+00
       H  1.30866e+01  5.50349e+00  5.52348e+00
       O  1.00616e+01  6.25399e+00  5.30999e+00
       H  1.01729e+01  6.19924e+00  4.30377e+00
       H  9.97856e+00  7.20698e+00  5.40491e+00
       O  1.01528e+01  8.81991e+00  1.60914e+00
       H  1.02230e+01  7.90874e+00  1.93216e+00
       H  1.08624e+01  9.40818e+00  1.93442e+00
       O  1.23593e+01  1.02227e+01  2.37719e+00
       H  1.30739e+01  9.76835e+00  2.04785e+00
       H  1.24711e+01  1.11062e+01  2.01593e+00
       O  1.00942e+01  9.02420e+00  6.10721e+00
       H  9.99926e+00  9.25291e+00  7.02545e+00
       H  9.33612e+00  9.42343e+00  5.63255e+00
       O  1.23324e+01  1.02401e+01  5.28153e+00
       H  1.22429e+01  1.01023e+01  4.31630e+00
       H  1.15567e+01  9.78322e+00  5.57321e+00
       O  1.24128e+01  1.27488e+01  1.30516e+00
       H  1.24858e+01  1.27307e+01  3.67366e-01
       H  1.31801e+01  1.33370e+01  1.59755e+00
       O  1.02634e+01  1.44537e+01  2.28540e+00
       H  1.02702e+01  1.44522e+01  3.26545e+00
       H  1.10285e+01  1.39257e+01  2.05811e+00
       O  1.20932e+01  1.29449e+01  6.15066e+00
       H  1.14180e+01  1.34804e+01  5.65217e+00
       H  1.18993e+01  1.19958e+01  5.93754e+00
       O  1.03412e+01  1.47220e+01  5.01974e+00
       H  9.69373e+00  1.42085e+01  5.49242e+00
       H  1.03321e+01  1.57021e+01  5.31506e+00
       O  9.84310e-01  1.38439e+00  8.57622e+00
       H  1.18144e+00  1.24995e+00  7.69032e+00
       H  1.64120e+00  1.89998e+00  9.05746e+00
       O  3.06011e+00  2.63073e+00  9.66067e+00
       H  3.45116e+00  2.59652e+00  1.05473e+01
       H  3.78614e+00  2.24718e+00  9.18685e+00
       O  9.88535e-01  1.41099e+00  1.32698e+01
       H  2.16264e-01  1.96042e+00  1.30283e+01
       H  1.05532e+00  5.44337e-01  1.28054e+01
       O  3.50860e+00  2.51914e+00  1.24895e+01
       H  2.65321e+00  2.19812e+00  1.26679e+01
       H  3.27361e+00  3.41609e+00  1.27993e+01
       O  3.58795e+00  5.23159e+00  8.69054e+00
       H  3.43944e+00  4.37607e+00  9.10137e+00
       H  4.44943e+00  5.57138e+00  8.92553e+00
       O  1.25735e+00  6.42699e+00  9.80536e+00
       H  4.14828e-01  6.03985e+00  9.43544e+00
       H  2.03155e+00  6.03094e+00  9.42035e+00
       O  3.53433e+00  5.24274e+00  1.31582e+01
       H  3.52422e+00  5.26068e+00  1.41275e+01
       H  2.74587e+00  5.75902e+00  1.29606e+01
       O  1.17773e+00  6.59157e+00  1.24610e+01
       H  1.19038e+00  6.78374e+00  1.15115e+01
       H  1.30249e+00  7.41664e+00  1.29129e+01
       O  1.23390e+00  8.97149e+00  8.92162e+00
       H  1.24764e+00  8.91466e+00  7.96215e+00
       H  1.34381e+00  8.09192e+00  9.17480e+00
       O  3.39582e+00  1.03494e+01  9.62399e+00
       H  2.56718e+00  9.95380e+00  9.33812e+00
       H  4.08667e+00  9.73425e+00  9.32938e+00
       O  1.64184e+00  9.12534e+00  1.33022e+01
       H  9.14792e-01  9.73021e+00  1.31175e+01
       H  2.41631e+00  9.67802e+00  1.29325e+01
       O  3.74850e+00  1.05599e+01  1.22213e+01
       H  3.70061e+00  1.05179e+01  1.12440e+01
       H  4.43988e+00  9.92343e+00  1.24847e+01
       O  3.44334e+00  1.27729e+01  8.65887e+00
       H  2.64254e+00  1.32216e+01  9.01217e+00
       H  3.43839e+00  1.18201e+01  8.98943e+00
       O  1.32230e+00  1.42271e+01  9.65394e+00
       H  5.96087e-01  1.36957e+01  9.34946e+00
       H  1.06379e+00  1.51303e+01  9.43374e+00
       O  3.49598e+00  1.29953e+01  1.34027e+01
       H  3.46528e+00  1.20892e+01  1.29992e+01
       H  4.34623e+00  1.34485e+01  1.32400e+01
       O  1.16829e+00  1.43773e+01  1.24131e+01
       H  1.19232e+00  1.43626e+01  1.14703e+01
       H  2.03897e+00  1.39490e+01  1.25848e+01
       O  5.17989e+00  1.33674e+00  8.46938e+00
       H  5.22199e+00  4.83904e-01  8.93469e+00
       H  5.97011e+00  1.78078e+00  8.81398e+00
       O  7.84723e+00  2.47476e+00  9.65832e+00
       H  7.81839e+00  2.55334e+00  1.06313e+01
       H  7.81701e+00  3.39540e+00  9.35046e+00
       O  5.64718e+00  1.28263e+00  1.33415e+01
       H  5.42081e+00  1.17376e+00  1.42649e+01
       H  4.88187e+00  1.74766e+00  1.29871e+01
       O  7.86016e+00  2.61259e+00  1.23487e+01
       H  7.03776e+00  2.23715e+00  1.27251e+01
       H  8.00315e+00  3.58364e+00  1.25783e+01
       O  7.64062e+00  5.05033e+00  8.89439e+00
       H  7.85790e+00  5.03044e+00  7.98287e+00
       H  8.46094e+00  5.41319e+00  9.29707e+00
       O  5.70535e+00  6.57797e+00  9.69314e+00
       H  5.65931e+00  6.61430e+00  1.06351e+01
       H  6.46696e+00  6.07760e+00  9.36169e+00
       O  7.97490e+00  5.17620e+00  1.33213e+01
       H  7.71393e+00  5.35751e+00  1.42290e+01
       H  8.71609e+00  5.75182e+00  1.31134e+01
       O  5.80351e+00  6.54961e+00  1.25334e+01
       H  5.04721e+00  5.97619e+00  1.26641e+01
       H  6.64644e+00  6.01130e+00  1.26532e+01
       O  5.63329e+00  9.11866e+00  8.70422e+00
       H  5.63491e+00  9.07975e+00  7.71365e+00
       H  5.58244e+00  8.18067e+00  8.93494e+00
       O  7.76838e+00  1.04826e+01  9.89755e+00
       H  7.89021e+00  1.04248e+01  1.08702e+01
       H  7.01181e+00  9.89580e+00  9.60212e+00
       O  5.99374e+00  9.11153e+00  1.32972e+01
       H  5.55811e+00  9.16501e+00  1.41499e+01
       H  6.00150e+00  8.12410e+00  1.31344e+01
       O  8.40902e+00  1.04846e+01  1.24952e+01
       H  7.78998e+00  9.92962e+00  1.29224e+01
       H  9.26482e+00  1.03284e+01  1.29925e+01
       O  7.81283e+00  1.30208e+01  8.86787e+00
       H  6.99972e+00  1.35235e+01  9.05573e+00
       H  7.66537e+00  1.21523e+01  9.24955e+00
       O  5.48437e+00  1.43225e+01  9.54827e+00
       H  5.61564e+00  1.43078e+01  1.05375e+01
       H  4.81265e+00  1.36782e+01  9.29792e+00
       O  7.98297e+00  1.30646e+01  1.32603e+01
       H  8.03214e+00  1.29990e+01  1.41894e+01
       H  8.13604e+00  1.21296e+01  1.30032e+01
       O  5.76306e+00  1.44668e+01  1.23286e+01
       H  6.49581e+00  1.38952e+01  1.26639e+01
       H  5.78933e+00  1.52707e+01  1.28562e+01
       O  9.92018e+00  1.20119e+00  8.38532e+00
       H  9.09830e+00  1.60289e+00  8.72358e+00
       H  1.06871e+01  1.69056e+00  8.78495e+00
       O  1.22805e+01  2.48478e+00  9.50911e+00
       H  1.31507e+01  2.06293e+00  9.36024e+00
       H  1.23540e+01  3.41746e+00  9.22049e+00
       O  1.01795e+01  1.71548e+00  1.33830e+01
       H  9.33358e+00  1.95544e+00  1.29981e+01
       H  1.02634e+01  8.15597e-01  1.30361e+01
       O  1.24346e+01  3.01119e+00  1.22593e+01
       H  1.24537e+01  2.80412e+00  1.13379e+01
       H  1.16469e+01  2.59627e+00  1.25906e+01
       O  1.23370e+01  5.38594e+00  8.79872e+00
       H  1.24345e+01  5.23052e+00  7.83257e+00
       H  1.15180e+01  5.81397e+00  9.06121e+00
       O  9.85494e+00  6.39137e+00  9.57559e+00
       H  1.00215e+01  6.48654e+00  1.05311e+01
       H  9.90998e+00  7.29459e+00  9.24531e+00
       O  1.22651e+01  5.60062e+00  1.33649e+01
       H  1.22742e+01  4.69633e+00  1.30029e+01
       H  1.31748e+01  5.91750e+00  1.30991e+01
       O  1.00640e+01  6.85941e+00  1.22927e+01
       H  1.08636e+01  6.40339e+00  1.27261e+01
       H  1.01599e+01  7.75742e+00  1.26338e+01
       O  9.99857e+00  9.01358e+00  9.08353e+00
       H  9.29678e+00  9.55461e+00  9.43366e+00
       H  1.07814e+01  9.46994e+00  9.35712e+00
       O  1.26110e+01  1.04023e+01  9.66855e+00
       H  1.34175e+01  9.93798e+00  9.32653e+00
       H  1.25288e+01  1.12758e+01  9.32784e+00
       O  1.06576e+01  9.21761e+00  1.34954e+01
       H  1.06226e+01  8.90165e+00  1.44461e+01
       H  1.15237e+01  9.55405e+00  1.31542e+01
       O  1.28889e+01  1.04049e+01  1.24927e+01
       H  1.26673e+01  1.03829e+01  1.15997e+01
       H  1.27546e+01  1.13597e+01  1.26750e+01
       O  1.25502e+01  1.30559e+01  8.79562e+00
       H  1.23974e+01  1.31227e+01  7.83428e+00
       H  1.17750e+01  1.34073e+01  9.16062e+00
       O  1.01845e+01  1.43665e+01  9.86874e+00
       H  9.44994e+00  1.37806e+01  9.66745e+00
       H  9.98908e+00  1.51626e+01  9.28693e+00
       O  1.24713e+01  1.30962e+01  1.32588e+01
       H  1.18193e+01  1.36893e+01  1.28379e+01
       H  1.32802e+01  1.35319e+01  1.30482e+01
       O  1.01940e+01  1.46496e+01  1.24929e+01
       H  1.02306e+01  1.45649e+01  1.15367e+01
       H  9.32141e+00  1.42881e+01  1.26884e+01
288
# CELL(abcABC):   13.52118    15.61292    14.72000    90.00000    90.00000    90.00000  Traj: x_centroid{angstrom} Step:         800  Bead:       0 
       O  8.91005e-01  1.50402e+00  1.32695e+00
       H  8.90193e-01  1.71354e+00  3.59219e-01
       H  1.64576e-01  1.97951e+00  1.64163e+00
       O  3.32928e+00  2.56344e+00  1.92046e+00
       H  2.57008e+00  2.12458e+00  1.56809e+00
       H  3.99401e+00  1.86224e+00  1.70490e+00
       O  1.38808e+00  9.33489e-01  6.05954e+00
       H  1.29699e+00  7.81209e-02  5.62371e+00
       H  1.96332e+00  1.50758e+00  5.55935e+00
       O  3.10249e+00  2.90294e+00  4.63685e+00
       H  3.18302e+00  2.79222e+00  3.66652e+00
       H  3.83955e+00  2.38470e+00  4.98943e+00
       O  3.48374e+00  5.19318e+00  8.36437e-01
       H  2.80895e+00  5.70832e+00  1.28075e+00
       H  3.43166e+00  4.23344e+00  9.47435e-01
       O  1.44250e+00  6.56318e+00  2.26063e+00
       H  6.18527e-01  6.10001e+00  2.04909e+00
       H  1.38952e+00  7.41918e+00  1.81230e+00
       O  3.18357e+00  5.47913e+00  6.00759e+00
       H  3.26038e+00  5.27934e+00  6.95464e+00
       H  3.16824e+00  4.58574e+00  5.52314e+00
       O  6.65695e-01  6.69879e+00  4.94571e+00
       H  8.66503e-01  6.56741e+00  4.03605e+00
       H  1.46353e+00  6.33455e+00  5.40456e+00
       O  1.14602e+00  9.08983e+00  1.34657e+00
       H  1.17086e+00  9.10554e+00  3.51681e-01
       H  1.92527e+00  9.57380e+00  1.62189e+00
       O  3.37251e+00  1.05563e+01  2.30558e+00
       H  3.58807e+00  1.04332e+01  3.22347e+00
       H  3.26389e+00  1.15152e+01  2.17142e+00
       O  9.91607e-01  9.31200e+00  5.91475e+00
       H  2.06030e-01  9.82647e+00  5.71211e+00
       H  7.85504e-01  8.44039e+00  5.51816e+00
       O  3.38436e+00  1.02020e+01  5.00797e+00
       H  2.59707e+00  9.92235e+00  5.50257e+00
       H  4.11601e+00  9.65085e+00  5.40264e+00
       O  3.07853e+00  1.30817e+01  1.32699e+00
       H  3.02644e+00  1.29543e+01  3.33089e-01
       H  2.34568e+00  1.36554e+01  1.52029e+00