6
# CELL(abcABC):  200.00000   200.00000   200.00000    90.00000    90.00000    90.00000  Step:          34  Bead:       0 x_centroid{angstrom}  cell{atomic_unit}
       H  1.39699e+00  1.33034e+00  1.12332e+00
       C  6.39037e-01  7.35644e-01  6.15667e-01
       H  1.12291e+00  2.21380e-02 -4.96325e-02
       H -8.48543e-03  1.39144e+00  3.55712e-02
       H  4.47085e-02  1.98679e-01  1.35343e+00
       H  6.85878e+00  2.44962e+00  2.08442e+00
